<?xml version='1.0' encoding='UTF-8'?>
<VTKFile xmlns='VTK' byte_order='LittleEndian' version='0.1' type='UnstructuredGrid'>
<UnstructuredGrid>
<Piece NumberOfCells='584' NumberOfPoints='584'>
<Points>
<DataArray NumberOfComponents='3' type='Float32' Name='Position' format='ascii'>
-0.075000 -0.075000 0.000000
-0.075000 -0.050000 0.000000
-0.075000 -0.025000 0.000000
-0.075000 0.000000 0.000000
-0.075000 0.025000 0.000000
-0.075000 0.050000 0.000000
-0.075000 0.075000 0.000000
-0.075000 0.100000 0.000000
-0.075000 0.125000 0.000000
-0.075000 0.150000 0.000000
-0.075000 0.175000 0.000000
-0.075000 0.200000 0.000000
-0.075000 0.225000 0.000000
-0.075000 0.250000 0.000000
-0.075000 0.275000 0.000000
-0.075000 0.300000 0.000000
-0.075000 0.325000 0.000000
-0.075000 0.350000 0.000000
-0.075000 0.375000 0.000000
-0.075000 0.400000 0.000000
-0.075000 0.425000 0.000000
-0.075000 0.450000 0.000000
-0.075000 0.475000 0.000000
-0.075000 0.500000 0.000000
-0.075000 0.525000 0.000000
-0.075000 0.550000 0.000000
-0.075000 0.575000 0.000000
-0.075000 0.600000 0.000000
-0.050000 -0.075000 0.000000
-0.050000 -0.050000 0.000000
-0.050000 -0.025000 0.000000
-0.050000 0.000000 0.000000
-0.050000 0.025000 0.000000
-0.050000 0.050000 0.000000
-0.050000 0.075000 0.000000
-0.050000 0.100000 0.000000
-0.050000 0.125000 0.000000
-0.050000 0.150000 0.000000
-0.050000 0.175000 0.000000
-0.050000 0.200000 0.000000
-0.050000 0.225000 0.000000
-0.050000 0.250000 0.000000
-0.050000 0.275000 0.000000
-0.050000 0.300000 0.000000
-0.050000 0.325000 0.000000
-0.050000 0.350000 0.000000
-0.050000 0.375000 0.000000
-0.050000 0.400000 0.000000
-0.050000 0.425000 0.000000
-0.050000 0.450000 0.000000
-0.050000 0.475000 0.000000
-0.050000 0.500000 0.000000
-0.050000 0.525000 0.000000
-0.050000 0.550000 0.000000
-0.050000 0.575000 0.000000
-0.050000 0.600000 0.000000
-0.025000 -0.075000 0.000000
-0.025000 -0.050000 0.000000
-0.025000 -0.025000 0.000000
-0.025000 0.000000 0.000000
-0.025000 0.025000 0.000000
-0.025000 0.050000 0.000000
-0.025000 0.075000 0.000000
-0.025000 0.100000 0.000000
-0.025000 0.125000 0.000000
-0.025000 0.150000 0.000000
-0.025000 0.175000 0.000000
-0.025000 0.200000 0.000000
-0.025000 0.225000 0.000000
-0.025000 0.250000 0.000000
-0.025000 0.275000 0.000000
-0.025000 0.300000 0.000000
-0.025000 0.325000 0.000000
-0.025000 0.350000 0.000000
-0.025000 0.375000 0.000000
-0.025000 0.400000 0.000000
-0.025000 0.425000 0.000000
-0.025000 0.450000 0.000000
-0.025000 0.475000 0.000000
-0.025000 0.500000 0.000000
-0.025000 0.525000 0.000000
-0.025000 0.550000 0.000000
-0.025000 0.575000 0.000000
-0.025000 0.600000 0.000000
0.000000 -0.075000 0.000000
0.000000 -0.050000 0.000000
0.000000 -0.025000 0.000000
0.000000 0.000000 0.000000
0.000000 0.025000 0.000000
0.000000 0.050000 0.000000
0.000000 0.075000 0.000000
0.000000 0.100000 0.000000
0.000000 0.125000 0.000000
0.000000 0.150000 0.000000
0.000000 0.175000 0.000000
0.000000 0.200000 0.000000
0.000000 0.225000 0.000000
0.000000 0.250000 0.000000
0.000000 0.275000 0.000000
0.000000 0.300000 0.000000
0.000000 0.325000 0.000000
0.000000 0.350000 0.000000
0.000000 0.375000 0.000000
0.000000 0.400000 0.000000
0.000000 0.425000 0.000000
0.000000 0.450000 0.000000
0.000000 0.475000 0.000000
0.000000 0.500000 0.000000
0.000000 0.525000 0.000000
0.000000 0.550000 0.000000
0.000000 0.575000 0.000000
0.000000 0.600000 0.000000
0.025000 -0.075000 0.000000
0.025000 -0.050000 0.000000
0.025000 -0.025000 0.000000
0.025000 0.000000 0.000000
0.041526 0.021774 0.000000
0.022530 0.034333 0.000000
0.050412 0.047229 0.000000
0.026786 0.060233 0.000000
0.051706 0.073130 0.000000
0.023854 0.083105 0.000000
0.047173 0.097978 0.000000
0.023746 0.110733 0.000000
0.039663 0.126943 0.000000
0.023239 0.147184 0.000000
0.031853 0.165344 0.000000
0.024386 0.186913 0.000000
0.027983 0.208331 0.000000
0.027417 0.229612 0.000000
0.025253 0.251322 0.000000
0.026391 0.273798 0.000000
0.026926 0.296787 0.000000
0.024081 0.318807 0.000000
0.026355 0.344903 0.000000
0.025294 0.363173 0.000000
0.050000 -0.075000 0.000000
0.050000 -0.050000 0.000000
0.050000 -0.025000 0.000000
0.050000 0.000000 0.000000
0.089161 0.023241 0.000000
0.068403 0.028327 0.000000
0.074405 0.056860 0.000000
0.105524 0.074236 0.000000
0.077328 0.077371 0.000000
0.091306 0.096789 0.000000
0.065802 0.109547 0.000000
0.086093 0.127550 0.000000
0.060172 0.135718 0.000000
0.071674 0.154625 0.000000
0.058730 0.170168 0.000000
0.064644 0.188118 0.000000
0.058248 0.206163 0.000000
0.061988 0.225192 0.000000
0.057263 0.244736 0.000000
0.058246 0.264957 0.000000
0.054416 0.285324 0.000000
0.056831 0.307645 0.000000
0.052763 0.328515 0.000000
0.054286 0.351829 0.000000
0.075000 -0.075000 0.000000
0.075000 -0.050000 0.000000
0.075000 -0.025000 0.000000
0.075000 0.000000 0.000000
0.116410 0.024227 0.000000
0.102122 0.048892 0.000000
0.140127 0.033368 0.000000
0.122242 0.050990 0.000000
0.139637 0.080846 0.000000
0.117010 0.093976 0.000000
0.140075 0.115902 0.000000
0.105599 0.117653 0.000000
0.113960 0.139129 0.000000
0.100969 0.154520 0.000000
0.106009 0.172508 0.000000
0.099537 0.190737 0.000000
0.097405 0.208585 0.000000
0.094823 0.227890 0.000000
0.091697 0.247900 0.000000
0.088474 0.267891 0.000000
0.086928 0.290459 0.000000
0.082920 0.311576 0.000000
0.082162 0.338447 0.000000
0.074328 0.356243 0.000000
0.100000 -0.075000 0.000000
0.100000 -0.050000 0.000000
0.100000 -0.025000 0.000000
0.100000 0.000000 0.000000
0.186011 0.027126 0.000000
0.160824 0.021728 0.000000
0.170496 0.047858 0.000000
0.180293 0.065646 0.000000
0.147403 0.059007 0.000000
0.172503 0.087250 0.000000
0.154256 0.097163 0.000000
0.172822 0.116222 0.000000
0.145407 0.133468 0.000000
0.157349 0.152554 0.000000
0.139522 0.163123 0.000000
0.142040 0.182415 0.000000
0.132931 0.199195 0.000000
0.131165 0.219411 0.000000
0.126862 0.238342 0.000000
0.119368 0.259203 0.000000
0.118790 0.280233 0.000000
0.112168 0.300860 0.000000
0.108084 0.324384 0.000000
0.106181 0.346666 0.000000
0.125000 -0.075000 0.000000
0.125000 -0.050000 0.000000
0.125000 -0.025000 0.000000
0.125000 0.000000 0.000000
0.222910 0.021224 0.000000
0.206884 0.034222 0.000000
0.247219 0.038052 0.000000
0.220599 0.055819 0.000000
0.240083 0.065212 0.000000
0.204070 0.068872 0.000000
0.211018 0.089382 0.000000
0.208082 0.109223 0.000000
0.192162 0.122824 0.000000
0.187298 0.141758 0.000000
0.184234 0.160392 0.000000
0.177842 0.178789 0.000000
0.172167 0.197118 0.000000
0.165956 0.215916 0.000000
0.160817 0.235152 0.000000
0.153250 0.255166 0.000000
0.150121 0.276817 0.000000
0.142326 0.298452 0.000000
0.140367 0.323920 0.000000
0.127837 0.343043 0.000000
0.150000 -0.075000 0.000000
0.150000 -0.050000 0.000000
0.150000 -0.025000 0.000000
0.150000 0.000000 0.000000
0.306727 0.023933 0.000000
0.265355 0.020156 0.000000
0.293243 0.042329 0.000000
0.267350 0.044023 0.000000
0.266712 0.068072 0.000000
0.285469 0.080999 0.000000
0.244630 0.088864 0.000000
0.261658 0.106440 0.000000
0.233235 0.108252 0.000000
0.239541 0.129350 0.000000
0.228862 0.147013 0.000000
0.222575 0.163295 0.000000
0.215154 0.182682 0.000000
0.207156 0.200500 0.000000
0.198882 0.221046 0.000000
0.190634 0.240865 0.000000
0.181162 0.262618 0.000000
0.174568 0.284695 0.000000
0.165742 0.308376 0.000000
0.158441 0.332979 0.000000
0.175000 -0.075000 0.000000
0.175000 -0.050000 0.000000
0.175000 -0.025000 0.000000
0.175000 0.000000 0.000000
0.364926 0.022601 0.000000
0.327108 0.024831 0.000000
0.361410 0.046031 0.000000
0.338365 0.045819 0.000000
0.340181 0.069896 0.000000
0.306491 0.057141 0.000000
0.313119 0.076777 0.000000
0.315859 0.100718 0.000000
0.284159 0.100877 0.000000
0.286277 0.125590 0.000000
0.267639 0.132689 0.000000
0.261827 0.155387 0.000000
0.252454 0.171548 0.000000
0.241673 0.193505 0.000000
0.234434 0.212655 0.000000
0.223024 0.233567 0.000000
0.214205 0.254894 0.000000
0.202440 0.277212 0.000000
0.198101 0.304098 0.000000
0.182153 0.325224 0.000000
0.200000 -0.075000 0.000000
0.200000 -0.050000 0.000000
0.200000 -0.025000 0.000000
0.200000 0.000000 0.000000
0.516931 0.033193 0.000000
0.411377 0.022690 0.000000
0.447527 0.022455 0.000000
0.386457 0.027041 0.000000
0.424651 0.044258 0.000000
0.402924 0.049103 0.000000
0.373238 0.063914 0.000000
0.361341 0.083711 0.000000
0.343191 0.092910 0.000000
0.330401 0.114194 0.000000
0.323361 0.133240 0.000000
0.305212 0.142501 0.000000
0.299003 0.162146 0.000000
0.286108 0.177445 0.000000
0.274941 0.194794 0.000000
0.265865 0.215542 0.000000
0.251445 0.235428 0.000000
0.238521 0.259815 0.000000
0.227188 0.283531 0.000000
0.212790 0.312070 0.000000
0.225000 -0.075000 0.000000
0.225000 -0.050000 0.000000
0.225000 -0.025000 0.000000
0.225000 0.000000 0.000000
0.533373 0.020356 0.000000
0.553823 0.044694 0.000000
0.487301 0.021393 0.000000
0.500380 0.047769 0.000000
0.470296 0.037521 0.000000
0.474709 0.062665 0.000000
0.448247 0.043472 0.000000
0.432167 0.073635 0.000000
0.402154 0.069374 0.000000
0.398950 0.090859 0.000000
0.381080 0.106941 0.000000
0.366287 0.125396 0.000000
0.350486 0.144355 0.000000
0.333425 0.163591 0.000000
0.318723 0.184500 0.000000
0.300549 0.204311 0.000000
0.288682 0.228069 0.000000
0.269059 0.250931 0.000000
0.258609 0.276010 0.000000
0.234989 0.300466 0.000000
0.250000 -0.075000 0.000000
0.250000 -0.050000 0.000000
0.250000 -0.025000 0.000000
0.250000 0.000000 0.000000
0.632841 0.017316 0.000000
0.595403 0.027051 0.000000
0.567076 0.025807 0.000000
0.587185 0.039944 0.000000
0.579959 0.058486 0.000000
0.542676 0.059106 0.000000
0.529219 0.066974 0.000000
0.509205 0.066287 0.000000
0.480000 0.079689 0.000000
0.457441 0.081496 0.000000
0.434985 0.090325 0.000000
0.412612 0.107865 0.000000
0.395382 0.122566 0.000000
0.377122 0.142205 0.000000
0.358279 0.162964 0.000000
0.343613 0.184240 0.000000
0.324649 0.205752 0.000000
0.310534 0.230266 0.000000
0.289777 0.250652 0.000000
0.271860 0.280748 0.000000
0.275000 -0.075000 0.000000
0.275000 -0.050000 0.000000
0.275000 -0.025000 0.000000
0.275000 0.000000 0.000000
0.300000 -0.075000 0.000000
0.300000 -0.050000 0.000000
0.300000 -0.025000 0.000000
0.300000 0.000000 0.000000
0.325000 -0.075000 0.000000
0.325000 -0.050000 0.000000
0.325000 -0.025000 0.000000
0.325000 0.000000 0.000000
0.350000 -0.075000 0.000000
0.350000 -0.050000 0.000000
0.350000 -0.025000 0.000000
0.350000 0.000000 0.000000
0.375000 -0.075000 0.000000
0.375000 -0.050000 0.000000
0.375000 -0.025000 0.000000
0.375000 0.000000 0.000000
0.400000 -0.075000 0.000000
0.400000 -0.050000 0.000000
0.400000 -0.025000 0.000000
0.400000 0.000000 0.000000
0.425000 -0.075000 0.000000
0.425000 -0.050000 0.000000
0.425000 -0.025000 0.000000
0.425000 0.000000 0.000000
0.450000 -0.075000 0.000000
0.450000 -0.050000 0.000000
0.450000 -0.025000 0.000000
0.450000 0.000000 0.000000
0.475000 -0.075000 0.000000
0.475000 -0.050000 0.000000
0.475000 -0.025000 0.000000
0.475000 0.000000 0.000000
0.500000 -0.075000 0.000000
0.500000 -0.050000 0.000000
0.500000 -0.025000 0.000000
0.500000 0.000000 0.000000
0.525000 -0.075000 0.000000
0.525000 -0.050000 0.000000
0.525000 -0.025000 0.000000
0.525000 0.000000 0.000000
0.550000 -0.075000 0.000000
0.550000 -0.050000 0.000000
0.550000 -0.025000 0.000000
0.550000 0.000000 0.000000
0.575000 -0.075000 0.000000
0.575000 -0.050000 0.000000
0.575000 -0.025000 0.000000
0.575000 0.000000 0.000000
0.600000 -0.075000 0.000000
0.600000 -0.050000 0.000000
0.600000 -0.025000 0.000000
0.600000 0.000000 0.000000
0.625000 -0.075000 0.000000
0.625000 -0.050000 0.000000
0.625000 -0.025000 0.000000
0.625000 0.000000 0.000000
0.650000 -0.075000 0.000000
0.650000 -0.050000 0.000000
0.650000 -0.025000 0.000000
0.650000 0.000000 0.000000
0.675000 -0.075000 0.000000
0.675000 -0.050000 0.000000
0.675000 -0.025000 0.000000
0.675000 0.000000 0.000000
0.700000 -0.075000 0.000000
0.700000 -0.050000 0.000000
0.700000 -0.025000 0.000000
0.700000 0.000000 0.000000
0.725000 -0.075000 0.000000
0.725000 -0.050000 0.000000
0.725000 -0.025000 0.000000
0.725000 0.000000 0.000000
0.750000 -0.075000 0.000000
0.750000 -0.050000 0.000000
0.750000 -0.025000 0.000000
0.750000 0.000000 0.000000
0.775000 -0.075000 0.000000
0.775000 -0.050000 0.000000
0.775000 -0.025000 0.000000
0.775000 0.000000 0.000000
0.800000 -0.075000 0.000000
0.800000 -0.050000 0.000000
0.800000 -0.025000 0.000000
0.800000 0.000000 0.000000
0.825000 -0.075000 0.000000
0.825000 -0.050000 0.000000
0.825000 -0.025000 0.000000
0.825000 0.000000 0.000000
0.850000 -0.075000 0.000000
0.850000 -0.050000 0.000000
0.850000 -0.025000 0.000000
0.850000 0.000000 0.000000
0.875000 -0.075000 0.000000
0.875000 -0.050000 0.000000
0.875000 -0.025000 0.000000
0.875000 0.000000 0.000000
0.900000 -0.075000 0.000000
0.900000 -0.050000 0.000000
0.900000 -0.025000 0.000000
0.900000 0.000000 0.000000
0.925000 -0.075000 0.000000
0.925000 -0.050000 0.000000
0.925000 -0.025000 0.000000
0.925000 0.000000 0.000000
0.950000 -0.075000 0.000000
0.950000 -0.050000 0.000000
0.950000 -0.025000 0.000000
0.950000 0.000000 0.000000
0.975000 -0.075000 0.000000
0.975000 -0.050000 0.000000
0.975000 -0.025000 0.000000
0.975000 0.000000 0.000000
1.000000 -0.075000 0.000000
1.000000 -0.050000 0.000000
1.000000 -0.025000 0.000000
1.000000 0.000000 0.000000
1.025000 -0.075000 0.000000
1.025000 -0.050000 0.000000
1.025000 -0.025000 0.000000
1.025000 0.000000 0.000000
1.025000 0.025000 0.000000
1.025000 0.050000 0.000000
1.025000 0.075000 0.000000
1.025000 0.100000 0.000000
1.025000 0.125000 0.000000
1.025000 0.150000 0.000000
1.025000 0.175000 0.000000
1.025000 0.200000 0.000000
1.025000 0.225000 0.000000
1.025000 0.250000 0.000000
1.025000 0.275000 0.000000
1.025000 0.300000 0.000000
1.025000 0.325000 0.000000
1.025000 0.350000 0.000000
1.025000 0.375000 0.000000
1.025000 0.400000 0.000000
1.025000 0.425000 0.000000
1.025000 0.450000 0.000000
1.025000 0.475000 0.000000
1.025000 0.500000 0.000000
1.025000 0.525000 0.000000
1.025000 0.550000 0.000000
1.025000 0.575000 0.000000
1.025000 0.600000 0.000000
1.050000 -0.075000 0.000000
1.050000 -0.050000 0.000000
1.050000 -0.025000 0.000000
1.050000 0.000000 0.000000
1.050000 0.025000 0.000000
1.050000 0.050000 0.000000
1.050000 0.075000 0.000000
1.050000 0.100000 0.000000
1.050000 0.125000 0.000000
1.050000 0.150000 0.000000
1.050000 0.175000 0.000000
1.050000 0.200000 0.000000
1.050000 0.225000 0.000000
1.050000 0.250000 0.000000
1.050000 0.275000 0.000000
1.050000 0.300000 0.000000
1.050000 0.325000 0.000000
1.050000 0.350000 0.000000
1.050000 0.375000 0.000000
1.050000 0.400000 0.000000
1.050000 0.425000 0.000000
1.050000 0.450000 0.000000
1.050000 0.475000 0.000000
1.050000 0.500000 0.000000
1.050000 0.525000 0.000000
1.050000 0.550000 0.000000
1.050000 0.575000 0.000000
1.050000 0.600000 0.000000
1.075000 -0.075000 0.000000
1.075000 -0.050000 0.000000
1.075000 -0.025000 0.000000
1.075000 0.000000 0.000000
1.075000 0.025000 0.000000
1.075000 0.050000 0.000000
1.075000 0.075000 0.000000
1.075000 0.100000 0.000000
1.075000 0.125000 0.000000
1.075000 0.150000 0.000000
1.075000 0.175000 0.000000
1.075000 0.200000 0.000000
1.075000 0.225000 0.000000
1.075000 0.250000 0.000000
1.075000 0.275000 0.000000
1.075000 0.300000 0.000000
1.075000 0.325000 0.000000
1.075000 0.350000 0.000000
1.075000 0.375000 0.000000
1.075000 0.400000 0.000000
1.075000 0.425000 0.000000
1.075000 0.450000 0.000000
1.075000 0.475000 0.000000
1.075000 0.500000 0.000000
1.075000 0.525000 0.000000
1.075000 0.550000 0.000000
1.075000 0.575000 0.000000
1.075000 0.600000 0.000000
1.100000 -0.075000 0.000000
1.100000 -0.050000 0.000000
1.100000 -0.025000 0.000000
1.100000 0.000000 0.000000
1.100000 0.025000 0.000000
1.100000 0.050000 0.000000
1.100000 0.075000 0.000000
1.100000 0.100000 0.000000
1.100000 0.125000 0.000000
1.100000 0.150000 0.000000
1.100000 0.175000 0.000000
1.100000 0.200000 0.000000
1.100000 0.225000 0.000000
1.100000 0.250000 0.000000
1.100000 0.275000 0.000000
1.100000 0.300000 0.000000
1.100000 0.325000 0.000000
1.100000 0.350000 0.000000
1.100000 0.375000 0.000000
1.100000 0.400000 0.000000
1.100000 0.425000 0.000000
1.100000 0.450000 0.000000
1.100000 0.475000 0.000000
1.100000 0.500000 0.000000
1.100000 0.525000 0.000000
1.100000 0.550000 0.000000
1.100000 0.575000 0.000000
1.100000 0.600000 0.000000
</DataArray>
</Points>
<PointData>
<DataArray NumberOfComponents='1' type='Int32' Name='ParticleType' format='ascii'>
3
3
3
3
3
3
3
3
3
3
3
3
3
3
3
3
3
3
3
3
3
3
3
3
3
3
2
2
3
3
3
3
3
3
3
3
3
3
3
3
3
3
3
3
3
3
3
3
3
3
3
3
3
3
2
2
3
3
2
2
2
2
2
2
2
2
2
2
2
2
2
2
2
2
2
2
2
2
2
2
2
2
2
2
3
3
2
2
2
2
2
2
2
2
2
2
2
2
2
2
2
2
2
2
2
2
2
2
2
2
2
2
3
3
2
2
0
0
0
0
0
0
0
0
0
0
0
0
0
0
0
0
0
0
0
0
3
3
2
2
0
0
0
0
0
0
0
0
0
0
0
0
0
0
0
0
0
0
0
0
3
3
2
2
0
0
0
0
0
0
0
0
0
0
0
0
0
0
0
0
0
0
0
0
3
3
2
2
0
0
0
0
0
0
0
0
0
0
0
0
0
0
0
0
0
0
0
0
3
3
2
2
0
0
0
0
0
0
0
0
0
0
0
0
0
0
0
0
0
0
0
0
3
3
2
2
0
0
0
0
0
0
0
0
0
0
0
0
0
0
0
0
0
0
0
0
3
3
2
2
0
0
0
0
0
0
0
0
0
0
0
0
0
0
0
0
0
0
0
0
3
3
2
2
0
0
0
0
0
0
0
0
0
0
0
0
0
0
0
0
0
0
0
0
3
3
2
2
0
0
0
0
0
0
0
0
0
0
0
0
0
0
0
0
0
0
0
0
3
3
2
2
0
0
0
0
0
0
0
0
0
0
0
0
0
0
0
0
0
0
0
0
3
3
2
2
3
3
2
2
3
3
2
2
3
3
2
2
3
3
2
2
3
3
2
2
3
3
2
2
3
3
2
2
3
3
2
2
3
3
2
2
3
3
2
2
3
3
2
2
3
3
2
2
3
3
2
2
3
3
2
2
3
3
2
2
3
3
2
2
3
3
2
2
3
3
2
2
3
3
2
2
3
3
2
2
3
3
2
2
3
3
2
2
3
3
2
2
3
3
2
2
3
3
2
2
3
3
2
2
3
3
2
2
3
3
2
2
3
3
2
2
3
3
2
2
2
2
2
2
2
2
2
2
2
2
2
2
2
2
2
2
2
2
2
2
2
2
2
2
3
3
2
2
2
2
2
2
2
2
2
2
2
2
2
2
2
2
2
2
2
2
2
2
2
2
2
2
3
3
3
3
3
3
3
3
3
3
3
3
3
3
3
3
3
3
3
3
3
3
3
3
3
3
2
2
3
3
3
3
3
3
3
3
3
3
3
3
3
3
3
3
3
3
3
3
3
3
3
3
3
3
2
2
</DataArray>
<DataArray NumberOfComponents='1' type='Float32' Name='Velocity' format='ascii'>
0.000000
0.000000
0.000000
0.000000
0.000000
0.000000
0.000000
0.000000
0.000000
0.000000
0.000000
0.000000
0.000000
0.000000
0.000000
0.000000
0.000000
0.000000
0.000000
0.000000
0.000000
0.000000
0.000000
0.000000
0.000000
0.000000
0.000000
0.000000
0.000000
0.000000
0.000000
0.000000
0.000000
0.000000
0.000000
0.000000
0.000000
0.000000
0.000000
0.000000
0.000000
0.000000
0.000000
0.000000
0.000000
0.000000
0.000000
0.000000
0.000000
0.000000
0.000000
0.000000
0.000000
0.000000
0.000000
0.000000
0.000000
0.000000
0.000000
0.000000
0.000000
0.000000
0.000000
0.000000
0.000000
0.000000
0.000000
0.000000
0.000000
0.000000
0.000000
0.000000
0.000000
0.000000
0.000000
0.000000
0.000000
0.000000
0.000000
0.000000
0.000000
0.000000
0.000000
0.000000
0.000000
0.000000
0.000000
0.000000
0.000000
0.000000
0.000000
0.000000
0.000000
0.000000
0.000000
0.000000
0.000000
0.000000
0.000000
0.000000
0.000000
0.000000
0.000000
0.000000
0.000000
0.000000
0.000000
0.000000
0.000000
0.000000
0.000000
0.000000
0.000000
0.000000
0.000000
0.000000
0.276355
0.298323
0.322416
0.390836
0.319537
0.342215
0.294741
0.641193
0.552832
0.675806
0.815627
0.731106
0.759299
0.783485
0.776045
0.797891
0.731980
0.764378
0.855421
0.826515
0.000000
0.000000
0.000000
0.000000
0.128027
0.407719
0.106842
0.582347
0.573190
0.289934
0.110694
0.681631
0.409181
0.578525
0.598296
0.673241
0.666665
0.782788
0.711813
0.795435
0.798814
0.893812
0.798856
0.866116
0.000000
0.000000
0.000000
0.000000
0.469267
0.612882
0.451952
0.525687
0.923610
0.675485
0.833318
0.508180
0.662933
0.618840
0.535797
0.520868
0.574027
0.493938
0.678652
0.676694
0.718790
0.717739
0.867145
0.871405
0.000000
0.000000
0.000000
0.000000
1.019288
0.755969
0.247636
0.294179
0.795424
0.780741
0.810834
1.229657
0.307605
0.794484
0.630454
0.774702
0.678003
0.845661
0.804313
0.787664
0.821898
0.856340
0.858429
0.861594
0.000000
0.000000
0.000000
0.000000
0.765719
0.327285
0.728576
1.158947
1.449748
0.955071
1.158186
1.124301
0.758971
0.480800
0.655060
0.547350
0.518129
0.657897
0.677143
0.737178
0.976528
0.900295
0.891444
1.081070
0.000000
0.000000
0.000000
0.000000
1.519896
1.079323
0.935613
0.643840
1.566004
1.252235
0.798875
1.350963
0.951969
1.112175
1.083881
1.097152
1.132676
1.118565
1.050630
1.123652
1.000919
0.997634
1.104495
1.102384
0.000000
0.000000
0.000000
0.000000
1.615396
0.957035
1.542263
1.923651
1.364418
1.399430
1.695909
1.543127
1.272308
1.685190
1.382042
1.263052
1.156704
1.238609
1.126966
1.226433
1.198803
1.208895
1.127848
1.244944
0.000000
0.000000
0.000000
0.000000
2.469087
1.901044
2.474423
1.681123
2.694914
2.739407
2.121078
2.219620
1.656885
1.494974
1.490961
1.249235
1.354929
1.328191
1.396027
1.557968
1.482056
1.443886
1.458042
1.340395
0.000000
0.000000
0.000000
0.000000
2.661424
2.703471
3.084114
2.301883
2.679174
2.388905
2.896206
2.414381
1.992430
2.129227
2.024241
2.078668
2.095871
1.909836
1.873957
1.818943
1.670041
1.550876
1.591887
1.445124
0.000000
0.000000
0.000000
0.000000
2.364862
2.771537
2.428506
2.628487
2.720815
2.509518
2.467830
2.826766
2.504259
2.664936
2.370209
2.496712
2.384677
2.331213
2.171398
2.136727
2.077969
2.017691
1.921232
1.764622
0.000000
0.000000
0.000000
0.000000
0.000000
0.000000
0.000000
0.000000
0.000000
0.000000
0.000000
0.000000
0.000000
0.000000
0.000000
0.000000
0.000000
0.000000
0.000000
0.000000
0.000000
0.000000
0.000000
0.000000
0.000000
0.000000
0.000000
0.000000
0.000000
0.000000
0.000000
0.000000
0.000000
0.000000
0.000000
0.000000
0.000000
0.000000
0.000000
0.000000
0.000000
0.000000
0.000000
0.000000
0.000000
0.000000
0.000000
0.000000
0.000000
0.000000
0.000000
0.000000
0.000000
0.000000
0.000000
0.000000
0.000000
0.000000
0.000000
0.000000
0.000000
0.000000
0.000000
0.000000
0.000000
0.000000
0.000000
0.000000
0.000000
0.000000
0.000000
0.000000
0.000000
0.000000
0.000000
0.000000
0.000000
0.000000
0.000000
0.000000
0.000000
0.000000
0.000000
0.000000
0.000000
0.000000
0.000000
0.000000
0.000000
0.000000
0.000000
0.000000
0.000000
0.000000
0.000000
0.000000
0.000000
0.000000
0.000000
0.000000
0.000000
0.000000
0.000000
0.000000
0.000000
0.000000
0.000000
0.000000
0.000000
0.000000
0.000000
0.000000
0.000000
0.000000
0.000000
0.000000
0.000000
0.000000
0.000000
0.000000
0.000000
0.000000
0.000000
0.000000
0.000000
0.000000
0.000000
0.000000
0.000000
0.000000
0.000000
0.000000
0.000000
0.000000
0.000000
0.000000
0.000000
0.000000
0.000000
0.000000
0.000000
0.000000
0.000000
0.000000
0.000000
0.000000
0.000000
0.000000
0.000000
0.000000
0.000000
0.000000
0.000000
0.000000
0.000000
0.000000
0.000000
0.000000
0.000000
0.000000
0.000000
0.000000
0.000000
0.000000
0.000000
0.000000
0.000000
0.000000
0.000000
0.000000
0.000000
0.000000
0.000000
0.000000
0.000000
0.000000
0.000000
0.000000
0.000000
0.000000
0.000000
0.000000
0.000000
0.000000
0.000000
0.000000
0.000000
0.000000
0.000000
0.000000
0.000000
0.000000
0.000000
0.000000
0.000000
0.000000
0.000000
0.000000
0.000000
0.000000
0.000000
0.000000
0.000000
0.000000
0.000000
0.000000
0.000000
0.000000
0.000000
0.000000
0.000000
0.000000
0.000000
0.000000
0.000000
0.000000
0.000000
0.000000
0.000000
0.000000
0.000000
0.000000
0.000000
0.000000
0.000000
0.000000
0.000000
0.000000
0.000000
0.000000
0.000000
0.000000
</DataArray>
<DataArray NumberOfComponents='1' type='Float32' Name='pressure' format='ascii'>
0.000000
0.000000
0.000000
0.000000
0.000000
0.000000
0.000000
0.000000
0.000000
0.000000
0.000000
0.000000
0.000000
0.000000
0.000000
0.000000
0.000000
0.000000
0.000000
0.000000
0.000000
0.000000
0.000000
0.000000
0.000000
0.000000
0.000000
0.000000
0.000000
0.000000
0.000000
0.000000
0.000000
0.000000
0.000000
0.000000
0.000000
0.000000
0.000000
0.000000
0.000000
0.000000
0.000000
0.000000
0.000000
0.000000
0.000000
0.000000
0.000000
0.000000
0.000000
0.000000
0.000000
0.000000
0.000000
0.000000
0.000000
0.000000
5622.554199
5695.615723
6370.452637
5921.828613
5794.506836
5188.291016
3928.979492
4185.188965
2737.711182
1864.470093
808.287109
993.704956
266.076233
0.000000
485.373962
0.000000
0.000000
0.000000
0.000000
0.000000
0.000000
0.000000
0.000000
0.000000
0.000000
0.000000
0.000000
0.000000
5810.865723
4766.680176
5598.665527
5992.898438
6268.833008
4883.027344
2422.577881
4514.512695
3564.022461
2274.082764
1592.795654
1583.601929
451.446533
238.125336
1354.204224
303.952667
0.000000
0.000000
0.000000
0.000000
0.000000
0.000000
0.000000
0.000000
0.000000
0.000000
0.000000
0.000000
6440.382812
4393.822754
8218.579102
7278.173828
5626.980957
6214.938965
4611.075195
6358.064453
5020.275391
5133.397461
5114.347168
2957.706787
3181.113037
2619.739258
2331.630127
2278.993652
2387.229736
1785.872681
1373.258179
1153.288086
121.932655
0.000000
0.000000
0.000000
7744.608398
8416.137695
6731.181641
5854.658203
5582.277832
3624.230957
6341.283691
5182.487793
3597.074951
4774.619629
4413.875977
2606.565674
2878.282959
2187.859619
2400.424805
1899.437866
1913.987427
1532.090698
1182.933838
611.795837
808.281006
0.000000
0.000000
0.000000
6877.736328
7110.665039
4778.784180
6354.800293
5113.706055
6859.853516
4133.155762
3531.838379
3681.123779
5338.144043
2030.706299
4119.561035
2409.631348
2789.630615
2828.264648
2173.757812
2306.581299
1781.187622
1431.573120
1197.361206
439.915375
0.000000
0.000000
0.000000
6929.085449
6783.457031
5474.824707
7600.500977
5135.488281
4841.943848
5047.679199
4399.749512
6854.237305
4836.649902
3097.261230
4002.190674
2680.084961
3126.994629
2376.765137
2595.498047
1867.703979
1566.003540
1674.757935
748.230164
1298.712280
0.000000
0.000000
0.000000
6291.833496
4529.216797
5276.947266
6806.759766
3702.776855
5389.946777
4068.496094
5051.713379
5073.216309
3912.566406
6348.346680
3255.015625
4446.142090
3746.429443
3001.635254
3230.210693
2517.476318
2148.626953
1577.834106
1074.301025
0.000000
0.000000
0.000000
0.000000
7042.519531
6097.520020
3434.259521
3680.043213
3588.792969
4765.981934
2528.835205
3605.187500
5012.788574
4514.498535
4270.484375
3406.835205
2998.055908
2673.127197
2391.825684
2008.596191
1562.528442
1629.718262
1267.682861
847.467957
1378.956055
0.000000
0.000000
0.000000
6904.775391
6390.156738
2514.077881
1654.487671
2148.583252
510.559235
3578.225098
3737.703369
2403.564453
2373.284180
3465.388428
1726.536621
4123.937012
2382.293457
2710.952148
2167.934082
2406.003906
1758.026123
1617.682007
1054.337158
433.881592
0.000000
0.000000
0.000000
6181.793457
5936.843262
680.860962
1309.105713
36.724064
2639.178955
0.000000
1521.538086
448.618988
793.770264
2448.094482
2185.671875
1762.399414
2733.295410
2140.091309
1895.987915
1752.686523
1012.672546
1172.185791
439.721497
575.539856
0.000000
0.000000
0.000000
7834.554199
7906.989258
708.191528
0.000000
0.000000
482.242554
640.284119
98.966751
82.001831
0.000000
1212.622925
2197.260742
1491.361572
761.550964
2063.962158
2269.355469
1087.510986
978.523865
1140.648071
739.091125
73.293091
0.000000
0.000000
0.000000
6736.684570
5014.983398
0.000000
0.000000
0.000000
0.000000
0.000000
0.000000
0.000000
0.000000
0.000000
0.000000
0.000000
0.000000
0.000000
0.000000
0.000000
0.000000
0.000000
0.000000
0.000000
0.000000
0.000000
0.000000
6223.113281
4198.968262
0.000000
0.000000
3905.172852
2889.295898
0.000000
0.000000
2839.263916
2169.345947
0.000000
0.000000
2280.708252
0.000000
0.000000
0.000000
2701.459717
3339.381104
0.000000
0.000000
2333.923340
2368.849609
0.000000
0.000000
1662.290649
0.000000
0.000000
0.000000
2006.748535
1431.945557
0.000000
0.000000
1583.368408
0.000000
0.000000
0.000000
1447.179688
0.000000
0.000000
0.000000
1886.934570
1111.379761
0.000000
0.000000
425.123383
0.000000
0.000000
0.000000
0.000000
0.000000
0.000000
0.000000
0.000000
0.000000
0.000000
0.000000
3238.582520
0.000000
0.000000
0.000000
2241.595703
0.000000
0.000000
0.000000
0.000000
0.000000
0.000000
0.000000
0.000000
0.000000
0.000000
0.000000
0.000000
0.000000
0.000000
0.000000
0.000000
0.000000
0.000000
0.000000
0.000000
0.000000
0.000000
0.000000
0.000000
0.000000
0.000000
0.000000
0.000000
0.000000
0.000000
0.000000
0.000000
0.000000
0.000000
0.000000
0.000000
0.000000
0.000000
0.000000
0.000000
0.000000
0.000000
0.000000
0.000000
0.000000
0.000000
0.000000
0.000000
0.000000
0.000000
0.000000
0.000000
0.000000
0.000000
0.000000
0.000000
0.000000
0.000000
0.000000
0.000000
0.000000
0.000000
0.000000
0.000000
0.000000
0.000000
0.000000
0.000000
0.000000
0.000000
0.000000
0.000000
0.000000
0.000000
0.000000
0.000000
0.000000
0.000000
0.000000
0.000000
0.000000
0.000000
0.000000
0.000000
0.000000
0.000000
0.000000
0.000000
0.000000
0.000000
0.000000
0.000000
0.000000
0.000000
0.000000
0.000000
0.000000
0.000000
0.000000
0.000000
0.000000
0.000000
0.000000
0.000000
0.000000
0.000000
0.000000
0.000000
0.000000
0.000000
0.000000
0.000000
0.000000
0.000000
0.000000
0.000000
0.000000
0.000000
0.000000
0.000000
0.000000
0.000000
0.000000
0.000000
0.000000
0.000000
0.000000
0.000000
0.000000
0.000000
0.000000
0.000000
0.000000
0.000000
0.000000
0.000000
0.000000
0.000000
0.000000
0.000000
0.000000
0.000000
0.000000
0.000000
0.000000
0.000000
0.000000
0.000000
0.000000
0.000000
0.000000
0.000000
0.000000
0.000000
0.000000
0.000000
0.000000
0.000000
0.000000
0.000000
0.000000
0.000000
0.000000
0.000000
0.000000
0.000000
0.000000
0.000000
0.000000
</DataArray>
</PointData>
<Cells>
<DataArray type='Int32' Name='connectivity' format='ascii'>
0
1
2
3
4
5
6
7
8
9
10
11
12
13
14
15
16
17
18
19
20
21
22
23
24
25
26
27
28
29
30
31
32
33
34
35
36
37
38
39
40
41
42
43
44
45
46
47
48
49
50
51
52
53
54
55
56
57
58
59
60
61
62
63
64
65
66
67
68
69
70
71
72
73
74
75
76
77
78
79
80
81
82
83
84
85
86
87
88
89
90
91
92
93
94
95
96
97
98
99
100
101
102
103
104
105
106
107
108
109
110
111
112
113
114
115
116
117
118
119
120
121
122
123
124
125
126
127
128
129
130
131
132
133
134
135
136
137
138
139
140
141
142
143
144
145
146
147
148
149
150
151
152
153
154
155
156
157
158
159
160
161
162
163
164
165
166
167
168
169
170
171
172
173
174
175
176
177
178
179
180
181
182
183
184
185
186
187
188
189
190
191
192
193
194
195
196
197
198
199
200
201
202
203
204
205
206
207
208
209
210
211
212
213
214
215
216
217
218
219
220
221
222
223
224
225
226
227
228
229
230
231
232
233
234
235
236
237
238
239
240
241
242
243
244
245
246
247
248
249
250
251
252
253
254
255
256
257
258
259
260
261
262
263
264
265
266
267