<?xml version='1.0' encoding='UTF-8'?>
<VTKFile xmlns='VTK' byte_order='LittleEndian' version='0.1' type='UnstructuredGrid'>
<UnstructuredGrid>
<Piece NumberOfCells='584' NumberOfPoints='584'>
<Points>
<DataArray NumberOfComponents='3' type='Float32' Name='Position' format='ascii'>
-0.075000 -0.075000 0.000000
-0.075000 -0.050000 0.000000
-0.075000 -0.025000 0.000000
-0.075000 0.000000 0.000000
-0.075000 0.025000 0.000000
-0.075000 0.050000 0.000000
-0.075000 0.075000 0.000000
-0.075000 0.100000 0.000000
-0.075000 0.125000 0.000000
-0.075000 0.150000 0.000000
-0.075000 0.175000 0.000000
-0.075000 0.200000 0.000000
-0.075000 0.225000 0.000000
-0.075000 0.250000 0.000000
-0.075000 0.275000 0.000000
-0.075000 0.300000 0.000000
-0.075000 0.325000 0.000000
-0.075000 0.350000 0.000000
-0.075000 0.375000 0.000000
-0.075000 0.400000 0.000000
-0.075000 0.425000 0.000000
-0.075000 0.450000 0.000000
-0.075000 0.475000 0.000000
-0.075000 0.500000 0.000000
-0.075000 0.525000 0.000000
-0.075000 0.550000 0.000000
-0.075000 0.575000 0.000000
-0.075000 0.600000 0.000000
-0.050000 -0.075000 0.000000
-0.050000 -0.050000 0.000000
-0.050000 -0.025000 0.000000
-0.050000 0.000000 0.000000
-0.050000 0.025000 0.000000
-0.050000 0.050000 0.000000
-0.050000 0.075000 0.000000
-0.050000 0.100000 0.000000
-0.050000 0.125000 0.000000
-0.050000 0.150000 0.000000
-0.050000 0.175000 0.000000
-0.050000 0.200000 0.000000
-0.050000 0.225000 0.000000
-0.050000 0.250000 0.000000
-0.050000 0.275000 0.000000
-0.050000 0.300000 0.000000
-0.050000 0.325000 0.000000
-0.050000 0.350000 0.000000
-0.050000 0.375000 0.000000
-0.050000 0.400000 0.000000
-0.050000 0.425000 0.000000
-0.050000 0.450000 0.000000
-0.050000 0.475000 0.000000
-0.050000 0.500000 0.000000
-0.050000 0.525000 0.000000
-0.050000 0.550000 0.000000
-0.050000 0.575000 0.000000
-0.050000 0.600000 0.000000
-0.025000 -0.075000 0.000000
-0.025000 -0.050000 0.000000
-0.025000 -0.025000 0.000000
-0.025000 0.000000 0.000000
-0.025000 0.025000 0.000000
-0.025000 0.050000 0.000000
-0.025000 0.075000 0.000000
-0.025000 0.100000 0.000000
-0.025000 0.125000 0.000000
-0.025000 0.150000 0.000000
-0.025000 0.175000 0.000000
-0.025000 0.200000 0.000000
-0.025000 0.225000 0.000000
-0.025000 0.250000 0.000000
-0.025000 0.275000 0.000000
-0.025000 0.300000 0.000000
-0.025000 0.325000 0.000000
-0.025000 0.350000 0.000000
-0.025000 0.375000 0.000000
-0.025000 0.400000 0.000000
-0.025000 0.425000 0.000000
-0.025000 0.450000 0.000000
-0.025000 0.475000 0.000000
-0.025000 0.500000 0.000000
-0.025000 0.525000 0.000000
-0.025000 0.550000 0.000000
-0.025000 0.575000 0.000000
-0.025000 0.600000 0.000000
0.000000 -0.075000 0.000000
0.000000 -0.050000 0.000000
0.000000 -0.025000 0.000000
0.000000 0.000000 0.000000
0.000000 0.025000 0.000000
0.000000 0.050000 0.000000
0.000000 0.075000 0.000000
0.000000 0.100000 0.000000
0.000000 0.125000 0.000000
0.000000 0.150000 0.000000
0.000000 0.175000 0.000000
0.000000 0.200000 0.000000
0.000000 0.225000 0.000000
0.000000 0.250000 0.000000
0.000000 0.275000 0.000000
0.000000 0.300000 0.000000
0.000000 0.325000 0.000000
0.000000 0.350000 0.000000
0.000000 0.375000 0.000000
0.000000 0.400000 0.000000
0.000000 0.425000 0.000000
0.000000 0.450000 0.000000
0.000000 0.475000 0.000000
0.000000 0.500000 0.000000
0.000000 0.525000 0.000000
0.000000 0.550000 0.000000
0.000000 0.575000 0.000000
0.000000 0.600000 0.000000
0.025000 -0.075000 0.000000
0.025000 -0.050000 0.000000
0.025000 -0.025000 0.000000
0.025000 0.000000 0.000000
0.309396 0.081359 0.000000
0.161663 0.114156 0.000000
0.286698 0.052466 0.000000
0.267732 0.029244 0.000000
0.307773 0.048862 0.000000
0.213780 0.050422 0.000000
0.384363 0.020523 0.000000
0.323923 0.098704 0.000000
0.245543 0.123817 0.000000
0.162067 0.132422 0.000000
0.292086 0.024183 0.000000
0.198443 0.069288 0.000000
0.244548 0.021980 0.000000
0.222716 0.030035 0.000000
0.170934 0.075716 0.000000
0.109390 0.040711 0.000000
0.023710 0.136939 0.000000
0.142611 0.022035 0.000000
0.065847 0.077187 0.000000
0.274229 0.076941 0.000000
0.050000 -0.075000 0.000000
0.050000 -0.050000 0.000000
0.050000 -0.025000 0.000000
0.050000 0.000000 0.000000
0.099793 0.162124 0.000000
0.158113 0.053884 0.000000
0.084819 0.094032 0.000000
0.060340 0.021687 0.000000
0.023503 0.074430 0.000000
0.492444 0.061897 0.000000
0.264038 0.120910 0.000000
0.627463 0.024674 0.000000
0.117924 0.100435 0.000000
0.294598 0.153265 0.000000
0.193042 0.022407 0.000000
0.272664 0.153730 0.000000
0.040828 0.167412 0.000000
0.359455 0.161433 0.000000
0.239563 0.053817 0.000000
0.049167 0.039952 0.000000
0.289821 0.090964 0.000000
0.349880 0.083952 0.000000
0.091167 0.119252 0.000000
0.135727 0.041091 0.000000
0.075000 -0.075000 0.000000
0.075000 -0.050000 0.000000
0.075000 -0.025000 0.000000
0.075000 0.000000 0.000000
0.222746 0.077700 0.000000
0.193624 0.120757 0.000000
0.462012 0.134375 0.000000
0.413777 0.026639 0.000000
0.481521 0.144832 0.000000
0.565112 0.134811 0.000000
0.585335 0.112478 0.000000
0.083689 0.062047 0.000000
0.384959 0.067778 0.000000
0.614505 0.050817 0.000000
0.495234 0.026068 0.000000
0.118629 0.061251 0.000000
0.288361 0.114390 0.000000
0.261778 0.179057 0.000000
0.354879 0.061647 0.000000
0.082479 0.039657 0.000000
0.181501 0.089477 0.000000
0.048150 0.064905 0.000000
0.209507 0.099170 0.000000
0.263130 0.053737 0.000000
0.100000 -0.075000 0.000000
0.100000 -0.050000 0.000000
0.100000 -0.025000 0.000000
0.100000 0.000000 0.000000
0.542655 0.027326 0.000000
0.389630 0.197155 0.000000
0.513846 0.136363 0.000000
0.787784 0.022193 0.000000
0.327395 0.061945 0.000000
0.721160 0.024855 0.000000
0.568875 0.068422 0.000000
0.338138 0.041655 0.000000
0.680371 0.040620 0.000000
0.708089 0.067071 0.000000
0.522991 0.025268 0.000000
0.373779 0.093467 0.000000
0.530157 0.128682 0.000000
0.668605 0.075492 0.000000
0.062045 0.128639 0.000000
0.317324 0.022548 0.000000
0.547773 0.076396 0.000000
0.371359 0.042719 0.000000
0.393954 0.097697 0.000000
0.137085 0.118329 0.000000
0.125000 -0.075000 0.000000
0.125000 -0.050000 0.000000
0.125000 -0.025000 0.000000
0.125000 0.000000 0.000000
0.726415 0.075667 0.000000
0.613987 0.076241 0.000000
0.991653 0.074547 0.000000
0.853302 0.028521 0.000000
0.544355 0.115724 0.000000
0.663106 0.051405 0.000000
0.043563 0.140550 0.000000
0.512423 0.077439 0.000000
0.792505 0.070171 0.000000
0.751527 0.047134 0.000000
0.855646 0.063427 0.000000
0.531932 0.057728 0.000000
0.568463 0.046129 0.000000
0.408901 0.129109 0.000000
0.474201 0.023844 0.000000
0.426529 0.151061 0.000000
0.209579 0.148730 0.000000
0.242759 0.080734 0.000000
0.440902 0.133949 0.000000
0.056490 0.105066 0.000000
0.150000 -0.075000 0.000000
0.150000 -0.050000 0.000000
0.150000 -0.025000 0.000000
0.150000 0.000000 0.000000
0.185295 0.177715 0.000000
0.975624 0.030658 0.000000
0.687370 0.069152 0.000000
0.393455 0.049347 0.000000
0.898825 0.024195 0.000000
0.255767 0.098236 0.000000
0.908176 0.068134 0.000000
0.438729 0.186108 0.000000
0.950793 0.047554 0.000000
0.526587 0.190782 0.000000
0.946412 0.026002 0.000000
0.695808 0.024429 0.000000
0.892663 0.074551 0.000000
0.822461 0.060814 0.000000
0.769628 0.033460 0.000000
0.594577 0.081193 0.000000
0.659258 0.018668 0.000000
0.597656 0.115981 0.000000
0.632669 0.086673 0.000000
0.344918 0.106980 0.000000
0.175000 -0.075000 0.000000
0.175000 -0.050000 0.000000
0.175000 -0.025000 0.000000
0.175000 0.000000 0.000000
0.143412 0.070189 0.000000
0.511393 0.160551 0.000000
0.896983 0.047306 0.000000
0.789700 0.058014 0.000000
0.995446 0.023228 0.000000
0.140122 0.093243 0.000000
0.873141 0.024518 0.000000
0.447081 0.042441 0.000000
0.471443 0.047593 0.000000
0.924834 0.023611 0.000000
0.538967 0.093778 0.000000
0.740664 0.078651 0.000000
0.456952 0.084484 0.000000
0.924250 0.055779 0.000000
0.981982 0.058205 0.000000
0.512951 0.048853 0.000000
1.003348 0.046974 0.000000
0.509170 0.100269 0.000000
0.119561 0.123032 0.000000
0.423126 0.093985 0.000000
0.200000 -0.075000 0.000000
0.200000 -0.050000 0.000000
0.200000 -0.025000 0.000000
0.200000 0.000000 0.000000
0.391317 0.119431 0.000000
0.169300 0.027259 0.000000
0.320264 0.121549 0.000000
0.825930 0.023956 0.000000
0.463564 0.109259 0.000000
0.381718 0.166161 0.000000
0.637078 0.042998 0.000000
0.959122 0.064078 0.000000
0.410215 0.152975 0.000000
0.100869 0.079167 0.000000
0.809749 0.035472 0.000000
0.641104 0.071248 0.000000
0.097114 0.021798 0.000000
0.454878 0.185418 0.000000
0.567440 0.024202 0.000000
0.236729 0.139098 0.000000
0.717231 0.045705 0.000000
0.425132 0.200833 0.000000
0.870208 0.057565 0.000000
0.677364 0.096306 0.000000
0.225000 -0.075000 0.000000
0.225000 -0.050000 0.000000
0.225000 -0.025000 0.000000
0.225000 0.000000 0.000000
0.435600 0.072616 0.000000
0.838219 0.052840 0.000000
0.535984 0.180487 0.000000
0.330488 0.156030 0.000000
0.054874 0.163011 0.000000
0.084995 0.133861 0.000000
0.489372 0.163556 0.000000
0.932664 0.081674 0.000000
0.592425 0.045532 0.000000
0.038940 0.095278 0.000000
0.574431 0.092219 0.000000
0.204880 0.164419 0.000000
0.438660 0.022529 0.000000
0.490979 0.097923 0.000000
0.187970 0.044606 0.000000
0.215443 0.117471 0.000000
0.555210 0.142597 0.000000
0.027537 0.024227 0.000000
0.295721 0.138282 0.000000
0.421849 0.047931 0.000000
0.250000 -0.075000 0.000000
0.250000 -0.050000 0.000000
0.250000 -0.025000 0.000000
0.250000 0.000000 0.000000
0.747239 0.025439 0.000000
0.420164 0.182312 0.000000
0.332440 0.169583 0.000000
0.413141 0.073354 0.000000
0.351799 0.024656 0.000000
0.370912 0.146300 0.000000
0.126340 0.156425 0.000000
0.383005 0.185754 0.000000
0.340002 0.135440 0.000000
0.486323 0.122418 0.000000
0.246086 0.174450 0.000000
0.022314 0.111627 0.000000
0.181024 0.137234 0.000000
0.596401 0.023281 0.000000
0.435055 0.113226 0.000000
0.468932 0.070436 0.000000
0.365999 0.120617 0.000000
0.753579 0.071463 0.000000
0.024485 0.047319 0.000000
0.500186 0.176850 0.000000
0.275000 -0.075000 0.000000
0.275000 -0.050000 0.000000
0.275000 -0.025000 0.000000
0.275000 0.000000 0.000000
0.300000 -0.075000 0.000000
0.300000 -0.050000 0.000000
0.300000 -0.025000 0.000000
0.300000 0.000000 0.000000
0.325000 -0.075000 0.000000
0.325000 -0.050000 0.000000
0.325000 -0.025000 0.000000
0.325000 0.000000 0.000000
0.350000 -0.075000 0.000000
0.350000 -0.050000 0.000000
0.350000 -0.025000 0.000000
0.350000 0.000000 0.000000
0.375000 -0.075000 0.000000
0.375000 -0.050000 0.000000
0.375000 -0.025000 0.000000
0.375000 0.000000 0.000000
0.400000 -0.075000 0.000000
0.400000 -0.050000 0.000000
0.400000 -0.025000 0.000000
0.400000 0.000000 0.000000
0.425000 -0.075000 0.000000
0.425000 -0.050000 0.000000
0.425000 -0.025000 0.000000
0.425000 0.000000 0.000000
0.450000 -0.075000 0.000000
0.450000 -0.050000 0.000000
0.450000 -0.025000 0.000000
0.450000 0.000000 0.000000
0.475000 -0.075000 0.000000
0.475000 -0.050000 0.000000
0.475000 -0.025000 0.000000
0.475000 0.000000 0.000000
0.500000 -0.075000 0.000000
0.500000 -0.050000 0.000000
0.500000 -0.025000 0.000000
0.500000 0.000000 0.000000
0.525000 -0.075000 0.000000
0.525000 -0.050000 0.000000
0.525000 -0.025000 0.000000
0.525000 0.000000 0.000000
0.550000 -0.075000 0.000000
0.550000 -0.050000 0.000000
0.550000 -0.025000 0.000000
0.550000 0.000000 0.000000
0.575000 -0.075000 0.000000
0.575000 -0.050000 0.000000
0.575000 -0.025000 0.000000
0.575000 0.000000 0.000000
0.600000 -0.075000 0.000000
0.600000 -0.050000 0.000000
0.600000 -0.025000 0.000000
0.600000 0.000000 0.000000
0.625000 -0.075000 0.000000
0.625000 -0.050000 0.000000
0.625000 -0.025000 0.000000
0.625000 0.000000 0.000000
0.650000 -0.075000 0.000000
0.650000 -0.050000 0.000000
0.650000 -0.025000 0.000000
0.650000 0.000000 0.000000
0.675000 -0.075000 0.000000
0.675000 -0.050000 0.000000
0.675000 -0.025000 0.000000
0.675000 0.000000 0.000000
0.700000 -0.075000 0.000000
0.700000 -0.050000 0.000000
0.700000 -0.025000 0.000000
0.700000 0.000000 0.000000
0.725000 -0.075000 0.000000
0.725000 -0.050000 0.000000
0.725000 -0.025000 0.000000
0.725000 0.000000 0.000000
0.750000 -0.075000 0.000000
0.750000 -0.050000 0.000000
0.750000 -0.025000 0.000000
0.750000 0.000000 0.000000
0.775000 -0.075000 0.000000
0.775000 -0.050000 0.000000
0.775000 -0.025000 0.000000
0.775000 0.000000 0.000000
0.800000 -0.075000 0.000000
0.800000 -0.050000 0.000000
0.800000 -0.025000 0.000000
0.800000 0.000000 0.000000
0.825000 -0.075000 0.000000
0.825000 -0.050000 0.000000
0.825000 -0.025000 0.000000
0.825000 0.000000 0.000000
0.850000 -0.075000 0.000000
0.850000 -0.050000 0.000000
0.850000 -0.025000 0.000000
0.850000 0.000000 0.000000
0.875000 -0.075000 0.000000
0.875000 -0.050000 0.000000
0.875000 -0.025000 0.000000
0.875000 0.000000 0.000000
0.900000 -0.075000 0.000000
0.900000 -0.050000 0.000000
0.900000 -0.025000 0.000000
0.900000 0.000000 0.000000
0.925000 -0.075000 0.000000
0.925000 -0.050000 0.000000
0.925000 -0.025000 0.000000
0.925000 0.000000 0.000000
0.950000 -0.075000 0.000000
0.950000 -0.050000 0.000000
0.950000 -0.025000 0.000000
0.950000 0.000000 0.000000
0.975000 -0.075000 0.000000
0.975000 -0.050000 0.000000
0.975000 -0.025000 0.000000
0.975000 0.000000 0.000000
1.000000 -0.075000 0.000000
1.000000 -0.050000 0.000000
1.000000 -0.025000 0.000000
1.000000 0.000000 0.000000
1.025000 -0.075000 0.000000
1.025000 -0.050000 0.000000
1.025000 -0.025000 0.000000
1.025000 0.000000 0.000000
1.025000 0.025000 0.000000
1.025000 0.050000 0.000000
1.025000 0.075000 0.000000
1.025000 0.100000 0.000000
1.025000 0.125000 0.000000
1.025000 0.150000 0.000000
1.025000 0.175000 0.000000
1.025000 0.200000 0.000000
1.025000 0.225000 0.000000
1.025000 0.250000 0.000000
1.025000 0.275000 0.000000
1.025000 0.300000 0.000000
1.025000 0.325000 0.000000
1.025000 0.350000 0.000000
1.025000 0.375000 0.000000
1.025000 0.400000 0.000000
1.025000 0.425000 0.000000
1.025000 0.450000 0.000000
1.025000 0.475000 0.000000
1.025000 0.500000 0.000000
1.025000 0.525000 0.000000
1.025000 0.550000 0.000000
1.025000 0.575000 0.000000
1.025000 0.600000 0.000000
1.050000 -0.075000 0.000000
1.050000 -0.050000 0.000000
1.050000 -0.025000 0.000000
1.050000 0.000000 0.000000
1.050000 0.025000 0.000000
1.050000 0.050000 0.000000
1.050000 0.075000 0.000000
1.050000 0.100000 0.000000
1.050000 0.125000 0.000000
1.050000 0.150000 0.000000
1.050000 0.175000 0.000000
1.050000 0.200000 0.000000
1.050000 0.225000 0.000000
1.050000 0.250000 0.000000
1.050000 0.275000 0.000000
1.050000 0.300000 0.000000
1.050000 0.325000 0.000000
1.050000 0.350000 0.000000
1.050000 0.375000 0.000000
1.050000 0.400000 0.000000
1.050000 0.425000 0.000000
1.050000 0.450000 0.000000
1.050000 0.475000 0.000000
1.050000 0.500000 0.000000
1.050000 0.525000 0.000000
1.050000 0.550000 0.000000
1.050000 0.575000 0.000000
1.050000 0.600000 0.000000
1.075000 -0.075000 0.000000
1.075000 -0.050000 0.000000
1.075000 -0.025000 0.000000
1.075000 0.000000 0.000000
1.075000 0.025000 0.000000
1.075000 0.050000 0.000000
1.075000 0.075000 0.000000
1.075000 0.100000 0.000000
1.075000 0.125000 0.000000
1.075000 0.150000 0.000000
1.075000 0.175000 0.000000
1.075000 0.200000 0.000000
1.075000 0.225000 0.000000
1.075000 0.250000 0.000000
1.075000 0.275000 0.000000
1.075000 0.300000 0.000000
1.075000 0.325000 0.000000
1.075000 0.350000 0.000000
1.075000 0.375000 0.000000
1.075000 0.400000 0.000000
1.075000 0.425000 0.000000
1.075000 0.450000 0.000000
1.075000 0.475000 0.000000
1.075000 0.500000 0.000000
1.075000 0.525000 0.000000
1.075000 0.550000 0.000000
1.075000 0.575000 0.000000
1.075000 0.600000 0.000000
1.100000 -0.075000 0.000000
1.100000 -0.050000 0.000000
1.100000 -0.025000 0.000000
1.100000 0.000000 0.000000
1.100000 0.025000 0.000000
1.100000 0.050000 0.000000
1.100000 0.075000 0.000000
1.100000 0.100000 0.000000
1.100000 0.125000 0.000000
1.100000 0.150000 0.000000
1.100000 0.175000 0.000000
1.100000 0.200000 0.000000
1.100000 0.225000 0.000000
1.100000 0.250000 0.000000
1.100000 0.275000 0.000000
1.100000 0.300000 0.000000
1.100000 0.325000 0.000000
1.100000 0.350000 0.000000
1.100000 0.375000 0.000000
1.100000 0.400000 0.000000
1.100000 0.425000 0.000000
1.100000 0.450000 0.000000
1.100000 0.475000 0.000000
1.100000 0.500000 0.000000
1.100000 0.525000 0.000000
1.100000 0.550000 0.000000
1.100000 0.575000 0.000000
1.100000 0.600000 0.000000
</DataArray>
</Points>
<PointData>
<DataArray NumberOfComponents='1' type='Int32' Name='ParticleType' format='ascii'>
3
3
3
3
3
3
3
3
3
3
3
3
3
3
3
3
3
3
3
3
3
3
3
3
3
3
2
2
3
3
3
3
3
3
3
3
3
3
3
3
3
3
3
3
3
3
3
3
3
3
3
3
3
3
2
2
3
3
2
2
2
2
2
2
2
2
2
2
2
2
2
2
2
2
2
2
2
2
2
2
2
2
2
2
3
3
2
2
2
2
2
2
2
2
2
2
2
2
2
2
2
2
2
2
2
2
2
2
2
2
2
2
3
3
2
2
0
0
0
0
0
0
0
0
0
0
0
0
0
0
0
0
0
0
0
0
3
3
2
2
0
0
0
0
0
0
0
0
0
0
0
0
0
0
0
0
0
0
0
0
3
3
2
2
0
0
0
0
0
0
0
0
0
0
0
0
0
0
0
0
0
0
0
0
3
3
2
2
0
0
0
0
0
0
0
0
0
0
0
0
0
0
0
0
0
0
0
0
3
3
2
2
0
0
0
0
0
0
0
0
0
0
0
0
0
0
0
0
0
0
0
0
3
3
2
2
0
0
0
0
0
0
0
0
0
0
0
0
0
0
0
0
0
0
0
0
3
3
2
2
0
0
0
0
0
0
0
0
0
0
0
0
0
0
0
0
0
0
0
0
3
3
2
2
0
0
0
0
0
0
0
0
0
0
0
0
0
0
0
0
0
0
0
0
3
3
2
2
0
0
0
0
0
0
0
0
0
0
0
0
0
0
0
0
0
0
0
0
3
3
2
2
0
0
0
0
0
0
0
0
0
0
0
0
0
0
0
0
0
0
0
0
3
3
2
2
3
3
2
2
3
3
2
2
3
3
2
2
3
3
2
2
3
3
2
2
3
3
2
2
3
3
2
2
3
3
2
2
3
3
2
2
3
3
2
2
3
3
2
2
3
3
2
2
3
3
2
2
3
3
2
2
3
3
2
2
3
3
2
2
3
3
2
2
3
3
2
2
3
3
2
2
3
3
2
2
3
3
2
2
3
3
2
2
3
3
2
2
3
3
2
2
3
3
2
2
3
3
2
2
3
3
2
2
3
3
2
2
3
3
2
2
3
3
2
2
2
2
2
2
2
2
2
2
2
2
2
2
2
2
2
2
2
2
2
2
2
2
2
2
3
3
2
2
2
2
2
2
2
2
2
2
2
2
2
2
2
2
2
2
2
2
2
2
2
2
2
2
3
3
3
3
3
3
3
3
3
3
3
3
3
3
3
3
3
3
3
3
3
3
3
3
3
3
2
2
3
3
3
3
3
3
3
3
3
3
3
3
3
3
3
3
3
3
3
3
3
3
3
3
3
3
2
2
</DataArray>
<DataArray NumberOfComponents='1' type='Float32' Name='Velocity' format='ascii'>
0.000000
0.000000
0.000000
0.000000
0.000000
0.000000
0.000000
0.000000
0.000000
0.000000
0.000000
0.000000
0.000000
0.000000
0.000000
0.000000
0.000000
0.000000
0.000000
0.000000
0.000000
0.000000
0.000000
0.000000
0.000000
0.000000
0.000000
0.000000
0.000000
0.000000
0.000000
0.000000
0.000000
0.000000
0.000000
0.000000
0.000000
0.000000
0.000000
0.000000
0.000000
0.000000
0.000000
0.000000
0.000000
0.000000
0.000000
0.000000
0.000000
0.000000
0.000000
0.000000
0.000000
0.000000
0.000000
0.000000
0.000000
0.000000
0.000000
0.000000
0.000000
0.000000
0.000000
0.000000
0.000000
0.000000
0.000000
0.000000
0.000000
0.000000
0.000000
0.000000
0.000000
0.000000
0.000000
0.000000
0.000000
0.000000
0.000000
0.000000
0.000000
0.000000
0.000000
0.000000
0.000000
0.000000
0.000000
0.000000
0.000000
0.000000
0.000000
0.000000
0.000000
0.000000
0.000000
0.000000
0.000000
0.000000
0.000000
0.000000
0.000000
0.000000
0.000000
0.000000
0.000000
0.000000
0.000000
0.000000
0.000000
0.000000
0.000000
0.000000
0.000000
0.000000
0.000000
0.000000
0.417660
0.378642
0.371714
0.393901
0.207843
0.277589
0.293263
0.551687
0.115244
0.663738
0.346101
0.406047
0.285587
0.489210
0.384836
0.231794
0.069001
0.316285
0.315974
0.300575
0.000000
0.000000
0.000000
0.000000
0.541172
0.454701
0.363943
0.330261
0.151906
0.872161
0.385205
0.391152
0.048693
0.304418
0.289322
0.296730
0.228987
0.631018
0.385302
0.083852
0.569717
0.464250
0.278078
0.069531
0.000000
0.000000
0.000000
0.000000
0.401368
0.420479
0.479911
0.513605
0.767882
0.483570
0.869545
0.140823
0.497214
0.561187
0.575025
0.040963
0.361497
0.147137
0.669348
0.222636
0.063119
0.158518
0.407600
0.223247
0.000000
0.000000
0.000000
0.000000
0.698994
0.404718
0.380629
0.185293
0.239881
0.035802
0.559384
0.465937
0.418393
0.525198
0.690372
0.678496
0.572829
0.698121
0.249018
0.404435
0.558022
0.478076
0.488957
0.496042
0.000000
0.000000
0.000000
0.000000
0.338546
0.611140
0.182737
0.131477
0.691295
0.745416
0.503936
0.684000
0.269707
0.302577
0.305560
0.832712
0.716028
0.469101
0.674686
0.598396
0.239436
0.444974
0.822458
0.146244
0.000000
0.000000
0.000000
0.000000
0.221469
0.179882
0.584460
0.618611
0.064110
0.388784
0.252765
0.267348
0.271896
0.637611
0.138875
0.391525
0.248022
0.147917
0.227983
0.326103
0.183719
0.634680
0.441212
0.421565
0.000000
0.000000
0.000000
0.000000
0.345172
0.105621
0.178094
0.400393
0.137572
0.461659
0.151213
0.749057
0.686121
0.082301
0.604440
0.108747
0.850020
0.146856
0.132359
0.817527
0.169495
0.643628
0.095404
1.022498
0.000000
0.000000
0.000000
0.000000
0.424078
0.284284
0.265140
0.259616
0.626806
0.526866
0.573114
0.219845
0.743571
0.374019
0.133034
0.266683
0.309741
0.377648
0.669975
0.318311
0.146964
0.680409
0.215369
0.136429
0.000000
0.000000
0.000000
0.000000
0.698464
0.022951
0.591739
0.436677
0.224007
0.476287
0.591246
0.385800
0.357042
0.457643
0.538960
0.249054
0.383115
0.747356
0.612127
0.187153
0.518505
0.144325
0.111852
0.634164
0.000000
0.000000
0.000000
0.000000
0.160004
0.512361
0.624054
0.682814
0.452495
0.708562
0.163763
0.431578
0.599113
0.519089
0.334783
0.247843
0.198015
0.562639
0.589132
0.755146
0.782416
0.701106
0.040919
0.522451
0.000000
0.000000
0.000000
0.000000
0.000000
0.000000
0.000000
0.000000
0.000000
0.000000
0.000000
0.000000
0.000000
0.000000
0.000000
0.000000
0.000000
0.000000
0.000000
0.000000
0.000000
0.000000
0.000000
0.000000
0.000000
0.000000
0.000000
0.000000
0.000000
0.000000
0.000000
0.000000
0.000000
0.000000
0.000000
0.000000
0.000000
0.000000
0.000000
0.000000
0.000000
0.000000
0.000000
0.000000
0.000000
0.000000
0.000000
0.000000
0.000000
0.000000
0.000000
0.000000
0.000000
0.000000
0.000000
0.000000
0.000000
0.000000
0.000000
0.000000
0.000000
0.000000
0.000000
0.000000
0.000000
0.000000
0.000000
0.000000
0.000000
0.000000
0.000000
0.000000
0.000000
0.000000
0.000000
0.000000
0.000000
0.000000
0.000000
0.000000
0.000000
0.000000
0.000000
0.000000
0.000000
0.000000
0.000000
0.000000
0.000000
0.000000
0.000000
0.000000
0.000000
0.000000
0.000000
0.000000
0.000000
0.000000
0.000000
0.000000
0.000000
0.000000
0.000000
0.000000
0.000000
0.000000
0.000000
0.000000
0.000000
0.000000
0.000000
0.000000
0.000000
0.000000
0.000000
0.000000
0.000000
0.000000
0.000000
0.000000
0.000000
0.000000
0.000000
0.000000
0.000000
0.000000
0.000000
0.000000
0.000000
0.000000
0.000000
0.000000
0.000000
0.000000
0.000000
0.000000
0.000000
0.000000
0.000000
0.000000
0.000000
0.000000
0.000000
0.000000
0.000000
0.000000
0.000000
0.000000
0.000000
0.000000
0.000000
0.000000
0.000000
0.000000
0.000000
0.000000
0.000000
0.000000
0.000000
0.000000
0.000000
0.000000
0.000000
0.000000
0.000000
0.000000
0.000000
0.000000
0.000000
0.000000
0.000000
0.000000
0.000000
0.000000
0.000000
0.000000
0.000000
0.000000
0.000000
0.000000
0.000000
0.000000
0.000000
0.000000
0.000000
0.000000
0.000000
0.000000
0.000000
0.000000
0.000000
0.000000
0.000000
0.000000
0.000000
0.000000
0.000000
0.000000
0.000000
0.000000
0.000000
0.000000
0.000000
0.000000
0.000000
0.000000
0.000000
0.000000
0.000000
0.000000
0.000000
0.000000
0.000000
0.000000
0.000000
0.000000
0.000000
0.000000
0.000000
0.000000
0.000000
0.000000
0.000000
0.000000
0.000000
0.000000
0.000000
0.000000
0.000000
0.000000
0.000000
0.000000
</DataArray>
<DataArray NumberOfComponents='1' type='Float32' Name='pressure' format='ascii'>
0.000000
0.000000
0.000000
0.000000
0.000000
0.000000
0.000000
0.000000
0.000000
0.000000
0.000000
0.000000
0.000000
0.000000
0.000000
0.000000
0.000000
0.000000
0.000000
0.000000
0.000000
0.000000
0.000000
0.000000
0.000000
0.000000
0.000000
0.000000
0.000000
0.000000
0.000000
0.000000
0.000000
0.000000
0.000000
0.000000
0.000000
0.000000
0.000000
0.000000
0.000000
0.000000
0.000000
0.000000
0.000000
0.000000
0.000000
0.000000
0.000000
0.000000
0.000000
0.000000
0.000000
0.000000
0.000000
0.000000
0.000000
0.000000
0.000000
0.000000
0.000000
530.600952
1469.134888
1736.192505
2113.399414
266.503174
0.000000
0.000000
0.000000
0.000000
0.000000
0.000000
0.000000
0.000000
0.000000
0.000000
0.000000
0.000000
0.000000
0.000000
0.000000
0.000000
0.000000
0.000000
0.000000
0.000000
251.976379
0.000000
0.000000
828.845032
998.374146
1238.446533
1876.674561
0.000000
0.000000
0.000000
0.000000
0.000000
0.000000
0.000000
0.000000
0.000000
0.000000
0.000000
0.000000
0.000000
0.000000
0.000000
0.000000
0.000000
0.000000
0.000000
0.000000
0.000000
1074.215820
875.833191
0.000000
775.689453
897.652405
558.063904
553.996887
1725.429321
356.154236
624.943909
526.705505
0.000000
654.741638
406.517181
1017.698181
77.139114
428.586487
997.505066
230.641357
726.546814
959.176880
36.230484
0.000000
0.000000
2113.880859
1234.330200
0.000000
1191.126953
422.145782
1618.760132
0.000000
358.000641
389.315430
0.000000
1015.648926
0.000000
1181.990234
0.000000
0.000000
0.000000
167.159760
971.779846
1461.050171
26.992836
779.156006
730.424194
0.000000
0.000000
2179.853027
1120.595337
899.433777
801.762939
0.000000
356.435913
44.786716
0.000000
15.537024
1792.569580
0.000000
957.078918
0.000000
1100.120728
0.000000
0.000000
463.021240
357.641541
647.721802
119.325287
0.000000
1521.802368
0.000000
0.000000
2535.350586
1085.613159
0.000000
0.000000
0.000000
970.699585
276.142700
1104.849609
389.319214
1251.004883
1284.003052
456.076172
1397.438110
132.973358
234.539673
0.000000
0.000000
329.687225
871.317627
1299.467407
1137.239868
299.365692
0.000000
0.000000
1188.923462
0.000000
862.032532
0.000000
0.000000
282.463135
0.000000
1046.160278
822.948975
0.000000
0.000000
900.225525
0.000000
0.000000
377.284210
794.535400
2078.560547
1769.830322
0.000000
240.360901
151.143036
305.264771
0.000000
0.000000
1913.743408
848.648132
0.000000
0.000000
168.762238
766.251648
0.000000
0.000000
0.000000
0.000000
556.675232
0.000000
0.000000
0.000000
0.000000
0.000000
684.419617
99.307068
486.795502
0.000000
0.000000
1117.634521
0.000000
0.000000
898.749695
1483.380127
459.704254
966.135925
0.000000
0.000000
339.268280
359.137604
0.000000
693.201355
902.997864
0.000000
0.000000
1220.813965
431.422424
0.000000
0.000000
552.953369
630.763306
0.000000
0.000000
0.000000
0.000000
0.000000
1740.063354
743.280273
39.297867
0.000000
0.000000
0.000000
0.000000
0.000000
1613.467896
0.000000
1480.826416
83.678368
83.789085
68.142097
950.936401
0.000000
1207.778076
0.000000
1539.945312
0.000000
0.000000
0.000000
0.000000
0.000000
826.774536
0.000000
919.007935
167.150558
0.000000
0.000000
0.000000
0.000000
0.000000
0.000000
1251.755005
1083.354370
0.000000
0.000000
2125.886719
0.000000
0.000000
0.000000
0.000000
654.639526
0.000000
4.549750
0.000000
0.000000
2050.549561
2195.249023
560.489136
774.633911
0.000000
1215.157104
0.000000
1044.343140
0.000000
0.000000
0.000000
0.000000
0.000000
1191.565430
0.000000
0.000000
867.732666
782.224426
0.000000
0.000000
918.072632
0.000000
0.000000
0.000000
553.535889
0.000000
0.000000
0.000000
1979.189331
1702.558838
0.000000
0.000000
2139.690186
1453.230835
0.000000
0.000000
1762.913940
633.685791
0.000000
0.000000
2984.604248
2360.371094
0.000000
0.000000
2294.143066
339.151917
0.000000
0.000000
1738.646606
1649.119385
0.000000
0.000000
1727.195679
421.993591
0.000000
0.000000
1492.339600
1470.581177
0.000000
0.000000
337.787354
391.771973
0.000000
0.000000
399.008331
667.156677
0.000000
0.000000
0.000000
360.051697
0.000000
0.000000
889.311035
1311.505859
0.000000
0.000000
1765.697266
469.567322
0.000000
0.000000
2009.692017
850.125488
0.000000
0.000000
4407.225098
3904.250000
0.000000
0.000000
3560.373047
1208.841919
0.000000
0.000000
1869.854492
1486.776489
0.000000
0.000000
1130.950806
1344.329956
0.000000
0.000000
551.029114
372.056274
0.000000
0.000000
754.144470
0.000000
0.000000
0.000000
462.594788
338.673950
0.000000
0.000000
0.000000
0.000000
0.000000
0.000000
0.000000
0.000000
0.000000
0.000000
0.049500
197.221817
0.000000
0.000000
602.152100
1706.171875
0.000000
0.000000
658.352478
1584.133301
0.000000
0.000000
0.000000
0.000000
0.000000
0.000000
0.000000
0.000000
0.000000
0.000000
0.000000
0.000000
0.000000
0.000000
0.000000
0.000000
0.000000
465.787720
0.000000
0.000000
0.000000
0.000000
0.000000
0.000000
0.000000
0.000000
0.000000
0.000000
0.000000
0.000000
0.000000
0.000000
0.000000
0.000000
0.000000
0.000000
0.000000
0.000000
0.000000
0.000000
0.000000
0.000000
0.000000
0.000000
0.000000
669.801514
0.000000
0.000000
0.000000
0.000000
0.000000
0.000000
0.000000
0.000000
0.000000
0.000000
0.000000
0.000000
0.000000
0.000000
0.000000
0.000000
0.000000
0.000000
0.000000
0.000000
0.000000
0.000000
0.000000
0.000000
0.000000
0.000000
0.000000
0.000000
0.000000
0.000000
0.000000
0.000000
0.000000
0.000000
0.000000
0.000000
0.000000
0.000000
0.000000
0.000000
0.000000
0.000000
0.000000
0.000000
0.000000
0.000000
0.000000
0.000000
0.000000
0.000000
0.000000
0.000000
0.000000
0.000000
0.000000
0.000000
0.000000
0.000000
0.000000
0.000000
0.000000
0.000000
0.000000
0.000000
0.000000
0.000000
0.000000
0.000000
0.000000
0.000000
0.000000
0.000000
0.000000
0.000000
0.000000
0.000000
0.000000
0.000000
</DataArray>
</PointData>
<Cells>
<DataArray type='Int32' Name='connectivity' format='ascii'>
0
1
2
3
4
5
6
7
8
9
10
11
12
13
14
15
16
17
18
19
20
21
22
23
24
25
26
27
28
29
30
31
32
33
34
35
36
37
38
39
40
41
42
43
44
45
46
47
48
49
50
51
52
53
54
55
56
57
58
59
60
61
62
63
64
65
66
67
68
69
70
71
72
73
74
75
76
77
78
79
80
81
82
83
84
85
86
87
88
89
90
91
92
93
94
95
96
97
98
99
100
101
102
103
104
105
106
107
108
109
110
111
112
113
114
115
116
117
118
119
120
121
122
123
124
125
126
127
128
129
130
131
132
133
134
135
136
137
138
139
140
141
142
143
144
145
146
147
148
149
150
151
152
153
154
155
156
157
158
159
160
161
162
163
164
165
166
167
168
169
170
171
172
173
174
175
176
177
178
179
180
181
182
183
184
185
186
187
188
189
190
191
192
193
194
195
196
197
198
199
200
201
202
203
204
205
206
207
208
209
210
211
212
213
214
215
216
217
218
219
220
221
222
223
224
225
226
227
228
229
230
231
232
233
234
235
236
237
238
239
240
241
242
243
244
245
246
247
248
249
250
251
252
253
254
255
256
257
258
259
260
261
262
263
264
265
266
267
268
269
270
271
272
273
274
275
276
277
278
279
280
281
282
283
284
285
286
287
288
289
290
291
292
293
294
295
296
297
298
299
300
301
302
303
304
305
306
307
308
309
310
311
312
313
314
315
316
317
318
319
320
321
322
323
324
325
326
327