<?xml version='1.0' encoding='UTF-8'?>
<VTKFile xmlns='VTK' byte_order='LittleEndian' version='0.1' type='UnstructuredGrid'>
<UnstructuredGrid>
<Piece NumberOfCells='584' NumberOfPoints='584'>
<Points>
<DataArray NumberOfComponents='3' type='Float32' Name='Position' format='ascii'>
-0.075000 -0.075000 0.000000
-0.075000 -0.050000 0.000000
-0.075000 -0.025000 0.000000
-0.075000 0.000000 0.000000
-0.075000 0.025000 0.000000
-0.075000 0.050000 0.000000
-0.075000 0.075000 0.000000
-0.075000 0.100000 0.000000
-0.075000 0.125000 0.000000
-0.075000 0.150000 0.000000
-0.075000 0.175000 0.000000
-0.075000 0.200000 0.000000
-0.075000 0.225000 0.000000
-0.075000 0.250000 0.000000
-0.075000 0.275000 0.000000
-0.075000 0.300000 0.000000
-0.075000 0.325000 0.000000
-0.075000 0.350000 0.000000
-0.075000 0.375000 0.000000
-0.075000 0.400000 0.000000
-0.075000 0.425000 0.000000
-0.075000 0.450000 0.000000
-0.075000 0.475000 0.000000
-0.075000 0.500000 0.000000
-0.075000 0.525000 0.000000
-0.075000 0.550000 0.000000
-0.075000 0.575000 0.000000
-0.075000 0.600000 0.000000
-0.050000 -0.075000 0.000000
-0.050000 -0.050000 0.000000
-0.050000 -0.025000 0.000000
-0.050000 0.000000 0.000000
-0.050000 0.025000 0.000000
-0.050000 0.050000 0.000000
-0.050000 0.075000 0.000000
-0.050000 0.100000 0.000000
-0.050000 0.125000 0.000000
-0.050000 0.150000 0.000000
-0.050000 0.175000 0.000000
-0.050000 0.200000 0.000000
-0.050000 0.225000 0.000000
-0.050000 0.250000 0.000000
-0.050000 0.275000 0.000000
-0.050000 0.300000 0.000000
-0.050000 0.325000 0.000000
-0.050000 0.350000 0.000000
-0.050000 0.375000 0.000000
-0.050000 0.400000 0.000000
-0.050000 0.425000 0.000000
-0.050000 0.450000 0.000000
-0.050000 0.475000 0.000000
-0.050000 0.500000 0.000000
-0.050000 0.525000 0.000000
-0.050000 0.550000 0.000000
-0.050000 0.575000 0.000000
-0.050000 0.600000 0.000000
-0.025000 -0.075000 0.000000
-0.025000 -0.050000 0.000000
-0.025000 -0.025000 0.000000
-0.025000 0.000000 0.000000
-0.025000 0.025000 0.000000
-0.025000 0.050000 0.000000
-0.025000 0.075000 0.000000
-0.025000 0.100000 0.000000
-0.025000 0.125000 0.000000
-0.025000 0.150000 0.000000
-0.025000 0.175000 0.000000
-0.025000 0.200000 0.000000
-0.025000 0.225000 0.000000
-0.025000 0.250000 0.000000
-0.025000 0.275000 0.000000
-0.025000 0.300000 0.000000
-0.025000 0.325000 0.000000
-0.025000 0.350000 0.000000
-0.025000 0.375000 0.000000
-0.025000 0.400000 0.000000
-0.025000 0.425000 0.000000
-0.025000 0.450000 0.000000
-0.025000 0.475000 0.000000
-0.025000 0.500000 0.000000
-0.025000 0.525000 0.000000
-0.025000 0.550000 0.000000
-0.025000 0.575000 0.000000
-0.025000 0.600000 0.000000
0.000000 -0.075000 0.000000
0.000000 -0.050000 0.000000
0.000000 -0.025000 0.000000
0.000000 0.000000 0.000000
0.000000 0.025000 0.000000
0.000000 0.050000 0.000000
0.000000 0.075000 0.000000
0.000000 0.100000 0.000000
0.000000 0.125000 0.000000
0.000000 0.150000 0.000000
0.000000 0.175000 0.000000
0.000000 0.200000 0.000000
0.000000 0.225000 0.000000
0.000000 0.250000 0.000000
0.000000 0.275000 0.000000
0.000000 0.300000 0.000000
0.000000 0.325000 0.000000
0.000000 0.350000 0.000000
0.000000 0.375000 0.000000
0.000000 0.400000 0.000000
0.000000 0.425000 0.000000
0.000000 0.450000 0.000000
0.000000 0.475000 0.000000
0.000000 0.500000 0.000000
0.000000 0.525000 0.000000
0.000000 0.550000 0.000000
0.000000 0.575000 0.000000
0.000000 0.600000 0.000000
0.025000 -0.075000 0.000000
0.025000 -0.050000 0.000000
0.025000 -0.025000 0.000000
0.025000 0.000000 0.000000
0.277678 0.023052 0.000000
0.241534 0.020739 0.000000
0.225688 0.039374 0.000000
0.175924 0.023248 0.000000
0.358862 0.022452 0.000000
0.068395 0.020501 0.000000
0.458541 0.021781 0.000000
0.308972 0.023596 0.000000
0.203724 0.024997 0.000000
0.150093 0.061453 0.000000
0.266159 0.054181 0.000000
0.178440 0.049800 0.000000
0.154450 0.028464 0.000000
0.040231 0.026084 0.000000
0.020816 0.033603 0.000000
0.038387 0.057845 0.000000
0.093758 0.031254 0.000000
0.080482 0.051958 0.000000
0.079123 0.064862 0.000000
0.123837 0.022368 0.000000
0.050000 -0.075000 0.000000
0.050000 -0.050000 0.000000
0.050000 -0.025000 0.000000
0.050000 0.000000 0.000000
0.336166 0.026687 0.000000
0.570957 0.067548 0.000000
0.653482 0.063432 0.000000
0.624391 0.092212 0.000000
0.636649 0.064971 0.000000
0.671512 0.048755 0.000000
0.553349 0.023846 0.000000
0.746440 0.068390 0.000000
0.391939 0.024454 0.000000
0.391372 0.059598 0.000000
0.543723 0.114033 0.000000
0.467642 0.043639 0.000000
0.053636 0.046642 0.000000
0.449917 0.044201 0.000000
0.248163 0.045348 0.000000
0.286015 0.041322 0.000000
0.196575 0.051672 0.000000
0.303076 0.057728 0.000000
0.111133 0.036901 0.000000
0.138642 0.047349 0.000000
0.075000 -0.075000 0.000000
0.075000 -0.050000 0.000000
0.075000 -0.025000 0.000000
0.075000 0.000000 0.000000
0.348883 0.058637 0.000000
0.574105 0.042341 0.000000
0.582688 0.024306 0.000000
0.500136 0.020907 0.000000
0.863556 0.096588 0.000000
0.853633 0.023205 0.000000
0.863007 0.040538 0.000000
0.569338 0.133131 0.000000
0.807137 0.079526 0.000000
0.789566 0.024561 0.000000
0.650776 0.023998 0.000000
0.518361 0.030794 0.000000
0.413032 0.092913 0.000000
0.364666 0.045633 0.000000
0.395065 0.041081 0.000000
0.341700 0.070081 0.000000
0.315908 0.045597 0.000000
0.500141 0.068935 0.000000
0.432745 0.114987 0.000000
0.212713 0.054553 0.000000
0.100000 -0.075000 0.000000
0.100000 -0.050000 0.000000
0.100000 -0.025000 0.000000
0.100000 0.000000 0.000000
0.676302 0.028071 0.000000
0.609935 0.021690 0.000000
0.796611 0.048242 0.000000
0.929940 0.022854 0.000000
0.424550 0.054314 0.000000
0.907794 0.035096 0.000000
0.918728 0.085059 0.000000
0.849963 0.157774 0.000000
0.888603 0.022975 0.000000
0.882185 0.047874 0.000000
0.698143 0.025382 0.000000
0.698923 0.068214 0.000000
0.823325 0.059212 0.000000
0.814836 0.025030 0.000000
0.670895 0.102448 0.000000
0.425784 0.022300 0.000000
0.731523 0.024954 0.000000
0.849310 0.115419 0.000000
0.632072 0.033132 0.000000
0.544166 0.041694 0.000000
0.125000 -0.075000 0.000000
0.125000 -0.050000 0.000000
0.125000 -0.025000 0.000000
0.125000 0.000000 0.000000
0.918744 0.059671 0.000000
0.900872 0.099193 0.000000
1.002350 0.158735 0.000000
0.959567 0.024714 0.000000
0.964672 0.199473 0.000000
0.746255 0.042059 0.000000
0.812010 0.168312 0.000000
0.911777 0.166437 0.000000
0.916115 0.132726 0.000000
0.899575 0.127010 0.000000
0.952022 0.121720 0.000000
0.857111 0.200158 0.000000
0.750766 0.088808 0.000000
0.769567 0.053553 0.000000
0.680368 0.070795 0.000000
0.763645 0.021454 0.000000
0.878379 0.145188 0.000000
0.580137 0.095241 0.000000
0.776666 0.113779 0.000000
0.651082 0.096848 0.000000
0.150000 -0.075000 0.000000
0.150000 -0.050000 0.000000
0.150000 -0.025000 0.000000
0.150000 0.000000 0.000000
0.791956 0.129918 0.000000
0.998752 0.080827 0.000000
0.972408 0.320286 0.000000
0.757927 0.131044 0.000000
0.983717 0.068954 0.000000
0.709338 0.150433 0.000000
0.979286 0.126607 0.000000
0.803569 0.093596 0.000000
1.000388 0.138447 0.000000
0.952063 0.167232 0.000000
0.978135 0.044312 0.000000
0.896846 0.064690 0.000000
0.939987 0.041944 0.000000
0.957104 0.056505 0.000000
0.938075 0.107616 0.000000
0.872367 0.121302 0.000000
0.829769 0.037901 0.000000
0.884050 0.089693 0.000000
0.855871 0.071432 0.000000
0.714785 0.037599 0.000000
0.175000 -0.075000 0.000000
0.175000 -0.050000 0.000000
0.175000 -0.025000 0.000000
0.175000 0.000000 0.000000
0.465257 0.060989 0.000000
0.987174 0.182414 0.000000
0.988151 0.215599 0.000000
1.001588 0.198688 0.000000
0.973661 0.162491 0.000000
0.756098 0.189939 0.000000
0.989757 0.021034 0.000000
0.847080 0.220239 0.000000
0.764747 0.149591 0.000000
1.005002 0.040783 0.000000
0.905622 0.225505 0.000000
0.945188 0.190031 0.000000
0.847310 0.133020 0.000000
0.955035 0.143253 0.000000
0.977698 0.108113 0.000000
0.779921 0.154596 0.000000
1.002732 0.102742 0.000000
0.885449 0.163857 0.000000
0.813975 0.114652 0.000000
0.867520 0.182245 0.000000
0.200000 -0.075000 0.000000
0.200000 -0.050000 0.000000
0.200000 -0.025000 0.000000
0.200000 0.000000 0.000000
0.786696 0.529280 0.000000
0.730491 0.197585 0.000000
0.814556 0.249890 0.000000
0.959495 0.245103 0.000000
0.817362 0.231777 0.000000
0.868811 0.229330 0.000000
0.916729 0.274257 0.000000
0.988174 0.331207 0.000000
0.886933 0.200860 0.000000
0.699313 0.095727 0.000000
0.999157 0.235363 0.000000
0.961665 0.079346 0.000000
0.582296 0.141070 0.000000
0.758927 0.105912 0.000000
0.904086 0.199590 0.000000
0.786338 0.177589 0.000000
0.928130 0.221328 0.000000
0.816480 0.139642 0.000000
0.928840 0.150466 0.000000
0.940649 0.086990 0.000000
0.225000 -0.075000 0.000000
0.225000 -0.050000 0.000000
0.225000 -0.025000 0.000000
0.225000 0.000000 0.000000
0.861500 0.258943 0.000000
0.947539 1.235677 0.000000
0.926511 0.249350 0.000000
0.605095 0.103204 0.000000
0.496293 0.085737 0.000000
0.596683 0.158401 0.000000
0.882573 0.254017 0.000000
0.997149 0.266079 0.000000
0.945947 0.249245 0.000000
0.779743 0.205325 0.000000
0.986772 0.251737 0.000000
0.691441 0.147393 0.000000
0.612894 0.049174 0.000000
0.840783 0.073196 0.000000
0.743900 0.193965 0.000000
0.811678 0.182942 0.000000
0.782554 0.065748 0.000000
0.682346 0.117364 0.000000
0.709841 0.131726 0.000000
0.720693 0.087703 0.000000
0.250000 -0.075000 0.000000
0.250000 -0.050000 0.000000
0.250000 -0.025000 0.000000
0.250000 0.000000 0.000000
0.947749 0.867618 0.000000
0.756741 0.795261 0.000000
0.725537 0.151457 0.000000
0.841408 0.234166 0.000000
0.588867 0.933191 0.000000
0.869808 0.315891 0.000000
0.619830 0.732163 0.000000
0.712878 0.536481 0.000000
0.508060 0.047377 0.000000
0.905675 0.244397 0.000000
0.580837 0.111031 0.000000
0.665861 0.130862 0.000000
0.796075 0.201315 0.000000
0.723734 0.067295 0.000000
0.729266 0.116232 0.000000
0.846314 0.174303 0.000000
0.601130 0.062035 0.000000
0.923157 0.183148 0.000000
0.632979 0.114385 0.000000
0.961121 0.219362 0.000000
0.275000 -0.075000 0.000000
0.275000 -0.050000 0.000000
0.275000 -0.025000 0.000000
0.275000 0.000000 0.000000
0.300000 -0.075000 0.000000
0.300000 -0.050000 0.000000
0.300000 -0.025000 0.000000
0.300000 0.000000 0.000000
0.325000 -0.075000 0.000000
0.325000 -0.050000 0.000000
0.325000 -0.025000 0.000000
0.325000 0.000000 0.000000
0.350000 -0.075000 0.000000
0.350000 -0.050000 0.000000
0.350000 -0.025000 0.000000
0.350000 0.000000 0.000000
0.375000 -0.075000 0.000000
0.375000 -0.050000 0.000000
0.375000 -0.025000 0.000000
0.375000 0.000000 0.000000
0.400000 -0.075000 0.000000
0.400000 -0.050000 0.000000
0.400000 -0.025000 0.000000
0.400000 0.000000 0.000000
0.425000 -0.075000 0.000000
0.425000 -0.050000 0.000000
0.425000 -0.025000 0.000000
0.425000 0.000000 0.000000
0.450000 -0.075000 0.000000
0.450000 -0.050000 0.000000
0.450000 -0.025000 0.000000
0.450000 0.000000 0.000000
0.475000 -0.075000 0.000000
0.475000 -0.050000 0.000000
0.475000 -0.025000 0.000000
0.475000 0.000000 0.000000
0.500000 -0.075000 0.000000
0.500000 -0.050000 0.000000
0.500000 -0.025000 0.000000
0.500000 0.000000 0.000000
0.525000 -0.075000 0.000000
0.525000 -0.050000 0.000000
0.525000 -0.025000 0.000000
0.525000 0.000000 0.000000
0.550000 -0.075000 0.000000
0.550000 -0.050000 0.000000
0.550000 -0.025000 0.000000
0.550000 0.000000 0.000000
0.575000 -0.075000 0.000000
0.575000 -0.050000 0.000000
0.575000 -0.025000 0.000000
0.575000 0.000000 0.000000
0.600000 -0.075000 0.000000
0.600000 -0.050000 0.000000
0.600000 -0.025000 0.000000
0.600000 0.000000 0.000000
0.625000 -0.075000 0.000000
0.625000 -0.050000 0.000000
0.625000 -0.025000 0.000000
0.625000 0.000000 0.000000
0.650000 -0.075000 0.000000
0.650000 -0.050000 0.000000
0.650000 -0.025000 0.000000
0.650000 0.000000 0.000000
0.675000 -0.075000 0.000000
0.675000 -0.050000 0.000000
0.675000 -0.025000 0.000000
0.675000 0.000000 0.000000
0.700000 -0.075000 0.000000
0.700000 -0.050000 0.000000
0.700000 -0.025000 0.000000
0.700000 0.000000 0.000000
0.725000 -0.075000 0.000000
0.725000 -0.050000 0.000000
0.725000 -0.025000 0.000000
0.725000 0.000000 0.000000
0.750000 -0.075000 0.000000
0.750000 -0.050000 0.000000
0.750000 -0.025000 0.000000
0.750000 0.000000 0.000000
0.775000 -0.075000 0.000000
0.775000 -0.050000 0.000000
0.775000 -0.025000 0.000000
0.775000 0.000000 0.000000
0.800000 -0.075000 0.000000
0.800000 -0.050000 0.000000
0.800000 -0.025000 0.000000
0.800000 0.000000 0.000000
0.825000 -0.075000 0.000000
0.825000 -0.050000 0.000000
0.825000 -0.025000 0.000000
0.825000 0.000000 0.000000
0.850000 -0.075000 0.000000
0.850000 -0.050000 0.000000
0.850000 -0.025000 0.000000
0.850000 0.000000 0.000000
0.875000 -0.075000 0.000000
0.875000 -0.050000 0.000000
0.875000 -0.025000 0.000000
0.875000 0.000000 0.000000
0.900000 -0.075000 0.000000
0.900000 -0.050000 0.000000
0.900000 -0.025000 0.000000
0.900000 0.000000 0.000000
0.925000 -0.075000 0.000000
0.925000 -0.050000 0.000000
0.925000 -0.025000 0.000000
0.925000 0.000000 0.000000
0.950000 -0.075000 0.000000
0.950000 -0.050000 0.000000
0.950000 -0.025000 0.000000
0.950000 0.000000 0.000000
0.975000 -0.075000 0.000000
0.975000 -0.050000 0.000000
0.975000 -0.025000 0.000000
0.975000 0.000000 0.000000
1.000000 -0.075000 0.000000
1.000000 -0.050000 0.000000
1.000000 -0.025000 0.000000
1.000000 0.000000 0.000000
1.025000 -0.075000 0.000000
1.025000 -0.050000 0.000000
1.025000 -0.025000 0.000000
1.025000 0.000000 0.000000
1.025000 0.025000 0.000000
1.025000 0.050000 0.000000
1.025000 0.075000 0.000000
1.025000 0.100000 0.000000
1.025000 0.125000 0.000000
1.025000 0.150000 0.000000
1.025000 0.175000 0.000000
1.025000 0.200000 0.000000
1.025000 0.225000 0.000000
1.025000 0.250000 0.000000
1.025000 0.275000 0.000000
1.025000 0.300000 0.000000
1.025000 0.325000 0.000000
1.025000 0.350000 0.000000
1.025000 0.375000 0.000000
1.025000 0.400000 0.000000
1.025000 0.425000 0.000000
1.025000 0.450000 0.000000
1.025000 0.475000 0.000000
1.025000 0.500000 0.000000
1.025000 0.525000 0.000000
1.025000 0.550000 0.000000
1.025000 0.575000 0.000000
1.025000 0.600000 0.000000
1.050000 -0.075000 0.000000
1.050000 -0.050000 0.000000
1.050000 -0.025000 0.000000
1.050000 0.000000 0.000000
1.050000 0.025000 0.000000
1.050000 0.050000 0.000000
1.050000 0.075000 0.000000
1.050000 0.100000 0.000000
1.050000 0.125000 0.000000
1.050000 0.150000 0.000000
1.050000 0.175000 0.000000
1.050000 0.200000 0.000000
1.050000 0.225000 0.000000
1.050000 0.250000 0.000000
1.050000 0.275000 0.000000
1.050000 0.300000 0.000000
1.050000 0.325000 0.000000
1.050000 0.350000 0.000000
1.050000 0.375000 0.000000
1.050000 0.400000 0.000000
1.050000 0.425000 0.000000
1.050000 0.450000 0.000000
1.050000 0.475000 0.000000
1.050000 0.500000 0.000000
1.050000 0.525000 0.000000
1.050000 0.550000 0.000000
1.050000 0.575000 0.000000
1.050000 0.600000 0.000000
1.075000 -0.075000 0.000000
1.075000 -0.050000 0.000000
1.075000 -0.025000 0.000000
1.075000 0.000000 0.000000
1.075000 0.025000 0.000000
1.075000 0.050000 0.000000
1.075000 0.075000 0.000000
1.075000 0.100000 0.000000
1.075000 0.125000 0.000000
1.075000 0.150000 0.000000
1.075000 0.175000 0.000000
1.075000 0.200000 0.000000
1.075000 0.225000 0.000000
1.075000 0.250000 0.000000
1.075000 0.275000 0.000000
1.075000 0.300000 0.000000
1.075000 0.325000 0.000000
1.075000 0.350000 0.000000
1.075000 0.375000 0.000000
1.075000 0.400000 0.000000
1.075000 0.425000 0.000000
1.075000 0.450000 0.000000
1.075000 0.475000 0.000000
1.075000 0.500000 0.000000
1.075000 0.525000 0.000000
1.075000 0.550000 0.000000
1.075000 0.575000 0.000000
1.075000 0.600000 0.000000
1.100000 -0.075000 0.000000
1.100000 -0.050000 0.000000
1.100000 -0.025000 0.000000
1.100000 0.000000 0.000000
1.100000 0.025000 0.000000
1.100000 0.050000 0.000000
1.100000 0.075000 0.000000
1.100000 0.100000 0.000000
1.100000 0.125000 0.000000
1.100000 0.150000 0.000000
1.100000 0.175000 0.000000
1.100000 0.200000 0.000000
1.100000 0.225000 0.000000
1.100000 0.250000 0.000000
1.100000 0.275000 0.000000
1.100000 0.300000 0.000000
1.100000 0.325000 0.000000
1.100000 0.350000 0.000000
1.100000 0.375000 0.000000
1.100000 0.400000 0.000000
1.100000 0.425000 0.000000
1.100000 0.450000 0.000000
1.100000 0.475000 0.000000
1.100000 0.500000 0.000000
1.100000 0.525000 0.000000
1.100000 0.550000 0.000000
1.100000 0.575000 0.000000
1.100000 0.600000 0.000000
</DataArray>
</Points>
<PointData>
<DataArray NumberOfComponents='1' type='Int32' Name='ParticleType' format='ascii'>
3
3
3
3
3
3
3
3
3
3
3
3
3
3
3
3
3
3
3
3
3
3
3
3
3
3
2
2
3
3
3
3
3
3
3
3
3
3
3
3
3
3
3
3
3
3
3
3
3
3
3
3
3
3
2
2
3
3
2
2
2
2
2
2
2
2
2
2
2
2
2
2
2
2
2
2
2
2
2
2
2
2
2
2
3
3
2
2
2
2
2
2
2
2
2
2
2
2
2
2
2
2
2
2
2
2
2
2
2
2
2
2
3
3
2
2
0
0
0
0
0
0
0
0
0
0
0
0
0
0
0
0
0
0
0
0
3
3
2
2
0
0
0
0
0
0
0
0
0
0
0
0
0
0
0
0
0
0
0
0
3
3
2
2
0
0
0
0
0
0
0
0
0
0
0
0
0
0
0
0
0
0
0
0
3
3
2
2
0
0
0
0
0
0
0
0
0
0
0
0
0
0
0
0
0
0
0
0
3
3
2
2
0
0
0
0
0
0
0
0
0
0
0
0
0
0
0
0
0
0
0
0
3
3
2
2
0
0
0
0
0
0
0
0
0
0
0
0
0
0
0
0
0
0
0
0
3
3
2
2
0
0
0
0
0
0
0
0
0
0
0
0
0
0
0
0
0
0
0
0
3
3
2
2
0
0
0
0
0
0
0
0
0
0
0
0
0
0
0
0
0
0
0
0
3
3
2
2
0
0
0
0
0
0
0
0
0
0
0
0
0
0
0
0
0
0
0
0
3
3
2
2
0
0
0
0
0
0
0
0
0
0
0
0
0
0
0
0
0
0
0
0
3
3
2
2
3
3
2
2
3
3
2
2
3
3
2
2
3
3
2
2
3
3
2
2
3
3
2
2
3
3
2
2
3
3
2
2
3
3
2
2
3
3
2
2
3
3
2
2
3
3
2
2
3
3
2
2
3
3
2
2
3
3
2
2
3
3
2
2
3
3
2
2
3
3
2
2
3
3
2
2
3
3
2
2
3
3
2
2
3
3
2
2
3
3
2
2
3
3
2
2
3
3
2
2
3
3
2
2
3
3
2
2
3
3
2
2
3
3
2
2
3
3
2
2
2
2
2
2
2
2
2
2
2
2
2
2
2
2
2
2
2
2
2
2
2
2
2
2
3
3
2
2
2
2
2
2
2
2
2
2
2
2
2
2
2
2
2
2
2
2
2
2
2
2
2
2
3
3
3
3
3
3
3
3
3
3
3
3
3
3
3
3
3
3
3
3
3
3
3
3
3
3
2
2
3
3
3
3
3
3
3
3
3
3
3
3
3
3
3
3
3
3
3
3
3
3
3
3
3
3
2
2
</DataArray>
<DataArray NumberOfComponents='1' type='Float32' Name='Velocity' format='ascii'>
0.000000
0.000000
0.000000
0.000000
0.000000
0.000000
0.000000
0.000000
0.000000
0.000000
0.000000
0.000000
0.000000
0.000000
0.000000
0.000000
0.000000
0.000000
0.000000
0.000000
0.000000
0.000000
0.000000
0.000000
0.000000
0.000000
0.000000
0.000000
0.000000
0.000000
0.000000
0.000000
0.000000
0.000000
0.000000
0.000000
0.000000
0.000000
0.000000
0.000000
0.000000
0.000000
0.000000
0.000000
0.000000
0.000000
0.000000
0.000000
0.000000
0.000000
0.000000
0.000000
0.000000
0.000000
0.000000
0.000000
0.000000
0.000000
0.000000
0.000000
0.000000
0.000000
0.000000
0.000000
0.000000
0.000000
0.000000
0.000000
0.000000
0.000000
0.000000
0.000000
0.000000
0.000000
0.000000
0.000000
0.000000
0.000000
0.000000
0.000000
0.000000
0.000000
0.000000
0.000000
0.000000
0.000000
0.000000
0.000000
0.000000
0.000000
0.000000
0.000000
0.000000
0.000000
0.000000
0.000000
0.000000
0.000000
0.000000
0.000000
0.000000
0.000000
0.000000
0.000000
0.000000
0.000000
0.000000
0.000000
0.000000
0.000000
0.000000
0.000000
0.000000
0.000000
0.000000
0.000000
0.184701
0.042402
0.331675
0.124491
0.256784
0.053722
0.349572
0.152304
0.299227
0.138580
0.180964
0.145335
0.234720
0.044545
0.104880
0.057982
0.168796
0.118968
0.112158
0.133528
0.000000
0.000000
0.000000
0.000000
0.050740
1.168123
0.340240
1.215726
1.138198
0.394892
0.674947
0.746277
0.189703
0.236609
0.279569
0.645954
0.129355
0.320159
0.345627
0.208579
0.489385
0.383188
0.090509
0.366234
0.000000
0.000000
0.000000
0.000000
0.555600
0.128541
0.256017
0.208658
0.514331
0.374259
0.067912
2.298346
0.521684
0.212401
0.869787
0.736507
0.661553
0.547692
0.639736
0.382556
0.347445
1.708828
0.709345
0.295414
0.000000
0.000000
0.000000
0.000000
0.244370
0.400263
0.889585
0.135696
0.111322
0.194611
0.518197
0.837529
0.117339
0.540987
0.409876
0.289269
0.249795
0.049626
1.412749
0.547758
0.343880
0.537992
0.381939
0.432647
0.000000
0.000000
0.000000
0.000000
0.284742
0.214074
0.115155
0.195864
0.394966
0.314857
1.530249
0.659578
0.247966
0.413614
0.153370
0.638673
0.688478
0.805674
0.731681
0.601250
0.500969
0.233451
1.204859
1.038066
0.000000
0.000000
0.000000
0.000000
0.544904
0.374839
0.283791
1.500686
0.193081
2.357286
0.050763
0.574039
0.355813
0.285574
0.155321
0.644727
0.085718
0.061565
0.341288
0.202330
0.236354
0.582343
0.346122
0.603492
0.000000
0.000000
0.000000
0.000000
0.153618
0.551552
0.239037
0.295120
0.345273
2.090705
0.031234
1.149790
1.722160
0.160623
0.644290
0.620937
0.760682
0.398011
0.348941
1.522997
0.042465
0.614685
0.818516
0.633891
0.000000
0.000000
0.000000
0.000000
2.202134
1.842497
1.364258
0.578938
1.681753
0.519100
1.446197
0.334910
1.215886
1.004889
0.810400
0.351711
3.090800
0.924947
0.401217
1.942363
0.648974
1.318376
0.192906
0.453131
0.000000
0.000000
0.000000
0.000000
0.404947
1.142740
0.352565
1.773423
0.469310
2.779582
0.524390
0.942288
0.854780
1.496367
0.839150
2.292291
1.416400
0.406374
1.895337
1.794630
0.278982
1.996061
1.711060
1.378087
0.000000
0.000000
0.000000
0.000000
1.876520
1.881725
2.956228
1.175217
1.844368
2.497933
2.047406
2.298662
2.294422
0.705945
2.155378
2.390893
1.661135
0.556884
1.902139
0.801494
1.277023
0.420423
2.121473
0.684963
0.000000
0.000000
0.000000
0.000000
0.000000
0.000000
0.000000
0.000000
0.000000
0.000000
0.000000
0.000000
0.000000
0.000000
0.000000
0.000000
0.000000
0.000000
0.000000
0.000000
0.000000
0.000000
0.000000
0.000000
0.000000
0.000000
0.000000
0.000000
0.000000
0.000000
0.000000
0.000000
0.000000
0.000000
0.000000
0.000000
0.000000
0.000000
0.000000
0.000000
0.000000
0.000000
0.000000
0.000000
0.000000
0.000000
0.000000
0.000000
0.000000
0.000000
0.000000
0.000000
0.000000
0.000000
0.000000
0.000000
0.000000
0.000000
0.000000
0.000000
0.000000
0.000000
0.000000
0.000000
0.000000
0.000000
0.000000
0.000000
0.000000
0.000000
0.000000
0.000000
0.000000
0.000000
0.000000
0.000000
0.000000
0.000000
0.000000
0.000000
0.000000
0.000000
0.000000
0.000000
0.000000
0.000000
0.000000
0.000000
0.000000
0.000000
0.000000
0.000000
0.000000
0.000000
0.000000
0.000000
0.000000
0.000000
0.000000
0.000000
0.000000
0.000000
0.000000
0.000000
0.000000
0.000000
0.000000
0.000000
0.000000
0.000000
0.000000
0.000000
0.000000
0.000000
0.000000
0.000000
0.000000
0.000000
0.000000
0.000000
0.000000
0.000000
0.000000
0.000000
0.000000
0.000000
0.000000
0.000000
0.000000
0.000000
0.000000
0.000000
0.000000
0.000000
0.000000
0.000000
0.000000
0.000000
0.000000
0.000000
0.000000
0.000000
0.000000
0.000000
0.000000
0.000000
0.000000
0.000000
0.000000
0.000000
0.000000
0.000000
0.000000
0.000000
0.000000
0.000000
0.000000
0.000000
0.000000
0.000000
0.000000
0.000000
0.000000
0.000000
0.000000
0.000000
0.000000
0.000000
0.000000
0.000000
0.000000
0.000000
0.000000
0.000000
0.000000
0.000000
0.000000
0.000000
0.000000
0.000000
0.000000
0.000000
0.000000
0.000000
0.000000
0.000000
0.000000
0.000000
0.000000
0.000000
0.000000
0.000000
0.000000
0.000000
0.000000
0.000000
0.000000
0.000000
0.000000
0.000000
0.000000
0.000000
0.000000
0.000000
0.000000
0.000000
0.000000
0.000000
0.000000
0.000000
0.000000
0.000000
0.000000
0.000000
0.000000
0.000000
0.000000
0.000000
0.000000
0.000000
0.000000
0.000000
0.000000
0.000000
0.000000
0.000000
0.000000
0.000000
0.000000
0.000000
0.000000
0.000000
</DataArray>
<DataArray NumberOfComponents='1' type='Float32' Name='pressure' format='ascii'>
0.000000
0.000000
0.000000
0.000000
0.000000
0.000000
0.000000
0.000000
0.000000
0.000000
0.000000
0.000000
0.000000
0.000000
0.000000
0.000000
0.000000
0.000000
0.000000
0.000000
0.000000
0.000000
0.000000
0.000000
0.000000
0.000000
0.000000
0.000000
0.000000
0.000000
0.000000
0.000000
0.000000
0.000000
0.000000
0.000000
0.000000
0.000000
0.000000
0.000000
0.000000
0.000000
0.000000
0.000000
0.000000
0.000000
0.000000
0.000000
0.000000
0.000000
0.000000
0.000000
0.000000
0.000000
0.000000
0.000000
0.000000
0.000000
109.940048
320.407990
1618.375610
630.092102
0.000000
0.000000
0.000000
0.000000
0.000000
0.000000
0.000000
0.000000
0.000000
0.000000
0.000000
0.000000
0.000000
0.000000
0.000000
0.000000
0.000000
0.000000
0.000000
0.000000
0.000000
0.000000
0.000000
0.000000
0.000000
0.000000
765.727478
0.000000
0.000000
0.000000
0.000000
0.000000
0.000000
0.000000
0.000000
0.000000
0.000000
0.000000
0.000000
0.000000
0.000000
0.000000
0.000000
0.000000
0.000000
0.000000
0.000000
0.000000
0.000000
0.000000
0.000000
0.000000
0.000000
0.000000
615.894775
0.000000
185.914215
0.000000
199.326859
281.602295
0.000000
835.158630
0.000000
0.000000
0.000000
0.000000
0.000000
901.417603
247.087433
0.000000
1039.572998
106.885994
0.000000
165.654999
0.000000
0.000000
690.915771
0.000000
0.000000
0.000000
3427.778809
0.000000
0.000000
1899.374634
0.000000
4669.801270
841.246399
0.000000
0.000000
2604.566406
0.000000
0.000000
0.000000
0.000000
0.000000
0.000000
0.000000
0.000000
0.000000
0.000000
1639.418579
331.670441
0.000000
0.000000
2510.496338
0.000000
0.000000
1155.987793
3111.575195
0.000000
2116.722900
4329.960938
2537.043457
0.000000
0.000000
0.000000
0.000000
0.000000
0.000000
0.000000
0.000000
0.000000
0.000000
0.000000
0.000000
0.000000
3848.437744
2435.386230
4033.969238
4069.051270
0.000000
2511.978516
1986.155518
1518.575317
3917.560303
1981.324829
2719.514404
2770.875000
2648.680420
3309.028564
1853.672241
0.000000
3692.843750
0.000000
2208.740234
0.000000
0.000000
0.000000
340.450165
480.731079
1326.333618
2585.347656
1993.526123
1683.975830
2323.921631
1766.279053
0.000000
489.353577
1200.941284
264.004028
2802.406006
0.000000
2460.856201
3512.610352
3370.960449
2545.389404
61.972256
0.000000
2513.321777
0.000000
0.000000
0.000000
0.000000
0.000000
0.000000
3880.540527
0.000000
0.000000
3841.117432
3956.678711
1767.599609
0.000000
2415.530518
2681.627441
2601.018555
2200.832031
3683.950439
3317.860596
2452.853760
2885.019531
4323.911133
3593.364258
1561.167358
1770.887207
0.000000
0.000000
0.000000
0.000000
0.000000
1315.648560
2351.881836
3161.336426
0.000000
0.000000
3713.632568
4683.745117
0.000000
1923.983398
2245.285156
0.000000
0.000000
2301.089355
1477.472778
1512.781006
2321.598633
0.000000
0.000000
2253.666260
0.000000
0.000000
0.000000
0.000000
0.000000
0.000000
0.000000
510.476776
0.000000
0.000000
0.000000
0.000000
445.765137
0.000000
1227.270386
1568.138550
0.000000
1755.966431
1383.926758
0.000000
0.000000
0.000000
1594.427124
2648.498535
0.000000
0.000000
322.519348
0.000000
0.000000
0.000000
1817.634399
0.000000
0.000000
0.000000
0.000000
0.000000
2630.393311
0.000000
0.000000
0.000000
0.000000
1393.884521
985.503967
0.000000
2817.428711
1988.260376
5429.759766
2691.499268
0.000000
0.000000
1447.838013
0.000000
0.000000
0.000000
0.000000
877.322571
0.000000
0.000000
0.000000
0.000000
0.000000
2594.277344
0.000000
0.000000
0.000000
6173.067871
0.000000
0.000000
0.000000
0.000000
0.000000
0.000000
0.000000
0.000000
1087.404541
0.000000
0.000000
0.000000
545.631165
788.781860
0.000000
0.000000
0.000000
0.000000
0.000000
0.000000
439.566132
701.847412
0.000000
0.000000
0.000000
0.000000
0.000000
0.000000
0.000000
0.000000
0.000000
0.000000
805.373108
0.000000
0.000000
0.000000
1281.073853
413.081085
0.000000
0.000000
1034.890137
0.000000
0.000000
0.000000
2332.222900
1421.595337
0.000000
0.000000
201.606812
0.000000
0.000000
0.000000
1512.248291
0.000000
0.000000
0.000000
2163.075439
2958.901611
0.000000
0.000000
3607.915527
3377.891357
0.000000
0.000000
3123.784424
2883.196045
0.000000
0.000000
2719.875244
2140.909180
0.000000
0.000000
1381.154297
1035.398682
0.000000
0.000000
2225.411133
2184.260742
0.000000
0.000000
2864.709961
2795.304443
0.000000
0.000000
4160.336426
3755.552246
0.000000
0.000000
4785.824707
4534.591309
0.000000
0.000000
3208.049072
4100.027832
0.000000
0.000000
2172.518799
760.230957
0.000000
0.000000
2628.288086
1491.528076
0.000000
0.000000
2204.484619
1335.313354
0.000000
0.000000
2818.032471
613.466492
0.000000
0.000000
3858.045898
4245.756348
0.000000
0.000000
3621.569092
3092.152832
0.000000
0.000000
4560.682129
3366.334961
0.000000
0.000000
4917.711914
4272.687988
0.000000
0.000000
3821.125000
2980.127930
2614.036133
2795.635986
1732.084229
3811.787842
1606.716309
2640.708252
291.025787
968.901550
0.000000
0.000000
0.000000
0.000000
0.000000
0.000000
0.000000
0.000000
0.000000
0.000000
0.000000
0.000000
0.000000
0.000000
0.000000
0.000000
0.000000
0.000000
3707.271484
3612.323975
4279.598145
4727.373047
2638.240967
3811.741211
2241.965088
3126.146729
1373.798828
1177.587646
0.000000
0.000000
0.000000
0.000000
0.000000
0.000000
0.000000
0.000000
0.000000
0.000000
0.000000
0.000000
0.000000
0.000000
0.000000
0.000000
0.000000
0.000000
0.000000
0.000000
0.000000
0.000000
0.000000
0.000000
0.000000
0.000000
0.000000
0.000000
0.000000
0.000000
0.000000
0.000000
0.000000
0.000000
0.000000
0.000000
0.000000
0.000000
0.000000
0.000000
0.000000
0.000000
0.000000
0.000000
0.000000
0.000000
0.000000
0.000000
0.000000
0.000000
0.000000
0.000000
0.000000
0.000000
0.000000
0.000000
0.000000
0.000000
0.000000
0.000000
0.000000
0.000000
0.000000
0.000000
0.000000
0.000000
0.000000
0.000000
0.000000
0.000000
0.000000
0.000000
</DataArray>
</PointData>
<Cells>
<DataArray type='Int32' Name='connectivity' format='ascii'>
0
1
2
3
4
5
6
7
8
9
10
11
12
13
14
15
16
17
18
19
20
21
22
23
24
25
26
27
28
29
30
31
32
33
34
35
36
37
38
39
40
41
42
43
44
45
46
47
48
49
50
51
52
53
54
55
56
57
58
59
60
61
62
63
64
65
66
67
68
69
70
71
72
73
74
75
76
77
78
79
80
81
82
83
84
85
86
87
88
89
90
91
92
93
94
95
96
97
98
99
100
101
102
103
104
105
106
107
108
109
110
111
112
113
114
115
116
117
118
119
120
121
122
123
124
125
126
127
128
129
130
131
132
133
134
135
136
137
138
139
140
141
142
143
144
145
146
147
148
149
150
151
152
153
154
155
156
157
158
159
160
161
162
163
164
165
166
167
168
169
170
171
172
173
174
175
176
177
178
179
180
181
182
183
184
185
186
187
188
189
190
191
192
193
194
195
196
197
198
199
200
201
202
203
204
205
206
207
208
209
210
211
212
213
214
215
216
217
218
219
220
221
222
223
224
225
226
227
228
229
230
231
232
233
234
235
236
237
238
239
240
241
242
243
244
245
246
247
248
249
250
251
252
253
254
255
256
257
258
259
260
261
262
263
264
265
266
267
268
269
270
271
272
273
274
275
276
277
278
279
280
281
282
283
284
285
286
287
288
289
290
291
292
293
294
295
296
297
298
299
300
301
302
303
304
305
306
307
308
309
310