<?xml version='1.0' encoding='UTF-8'?>
<VTKFile xmlns='VTK' byte_order='LittleEndian' version='0.1' type='UnstructuredGrid'>
<UnstructuredGrid>
<Piece NumberOfCells='584' NumberOfPoints='584'>
<Points>
<DataArray NumberOfComponents='3' type='Float32' Name='Position' format='ascii'>
-0.075000 -0.075000 0.000000
-0.075000 -0.050000 0.000000
-0.075000 -0.025000 0.000000
-0.075000 0.000000 0.000000
-0.075000 0.025000 0.000000
-0.075000 0.050000 0.000000
-0.075000 0.075000 0.000000
-0.075000 0.100000 0.000000
-0.075000 0.125000 0.000000
-0.075000 0.150000 0.000000
-0.075000 0.175000 0.000000
-0.075000 0.200000 0.000000
-0.075000 0.225000 0.000000
-0.075000 0.250000 0.000000
-0.075000 0.275000 0.000000
-0.075000 0.300000 0.000000
-0.075000 0.325000 0.000000
-0.075000 0.350000 0.000000
-0.075000 0.375000 0.000000
-0.075000 0.400000 0.000000
-0.075000 0.425000 0.000000
-0.075000 0.450000 0.000000
-0.075000 0.475000 0.000000
-0.075000 0.500000 0.000000
-0.075000 0.525000 0.000000
-0.075000 0.550000 0.000000
-0.075000 0.575000 0.000000
-0.075000 0.600000 0.000000
-0.050000 -0.075000 0.000000
-0.050000 -0.050000 0.000000
-0.050000 -0.025000 0.000000
-0.050000 0.000000 0.000000
-0.050000 0.025000 0.000000
-0.050000 0.050000 0.000000
-0.050000 0.075000 0.000000
-0.050000 0.100000 0.000000
-0.050000 0.125000 0.000000
-0.050000 0.150000 0.000000
-0.050000 0.175000 0.000000
-0.050000 0.200000 0.000000
-0.050000 0.225000 0.000000
-0.050000 0.250000 0.000000
-0.050000 0.275000 0.000000
-0.050000 0.300000 0.000000
-0.050000 0.325000 0.000000
-0.050000 0.350000 0.000000
-0.050000 0.375000 0.000000
-0.050000 0.400000 0.000000
-0.050000 0.425000 0.000000
-0.050000 0.450000 0.000000
-0.050000 0.475000 0.000000
-0.050000 0.500000 0.000000
-0.050000 0.525000 0.000000
-0.050000 0.550000 0.000000
-0.050000 0.575000 0.000000
-0.050000 0.600000 0.000000
-0.025000 -0.075000 0.000000
-0.025000 -0.050000 0.000000
-0.025000 -0.025000 0.000000
-0.025000 0.000000 0.000000
-0.025000 0.025000 0.000000
-0.025000 0.050000 0.000000
-0.025000 0.075000 0.000000
-0.025000 0.100000 0.000000
-0.025000 0.125000 0.000000
-0.025000 0.150000 0.000000
-0.025000 0.175000 0.000000
-0.025000 0.200000 0.000000
-0.025000 0.225000 0.000000
-0.025000 0.250000 0.000000
-0.025000 0.275000 0.000000
-0.025000 0.300000 0.000000
-0.025000 0.325000 0.000000
-0.025000 0.350000 0.000000
-0.025000 0.375000 0.000000
-0.025000 0.400000 0.000000
-0.025000 0.425000 0.000000
-0.025000 0.450000 0.000000
-0.025000 0.475000 0.000000
-0.025000 0.500000 0.000000
-0.025000 0.525000 0.000000
-0.025000 0.550000 0.000000
-0.025000 0.575000 0.000000
-0.025000 0.600000 0.000000
0.000000 -0.075000 0.000000
0.000000 -0.050000 0.000000
0.000000 -0.025000 0.000000
0.000000 0.000000 0.000000
0.000000 0.025000 0.000000
0.000000 0.050000 0.000000
0.000000 0.075000 0.000000
0.000000 0.100000 0.000000
0.000000 0.125000 0.000000
0.000000 0.150000 0.000000
0.000000 0.175000 0.000000
0.000000 0.200000 0.000000
0.000000 0.225000 0.000000
0.000000 0.250000 0.000000
0.000000 0.275000 0.000000
0.000000 0.300000 0.000000
0.000000 0.325000 0.000000
0.000000 0.350000 0.000000
0.000000 0.375000 0.000000
0.000000 0.400000 0.000000
0.000000 0.425000 0.000000
0.000000 0.450000 0.000000
0.000000 0.475000 0.000000
0.000000 0.500000 0.000000
0.000000 0.525000 0.000000
0.000000 0.550000 0.000000
0.000000 0.575000 0.000000
0.000000 0.600000 0.000000
0.025000 -0.075000 0.000000
0.025000 -0.050000 0.000000
0.025000 -0.025000 0.000000
0.025000 0.000000 0.000000
0.140924 0.048881 0.000000
0.220542 0.056274 0.000000
0.157742 0.036958 0.000000
0.175135 0.024130 0.000000
0.271237 0.031338 0.000000
0.083906 0.081601 0.000000
0.343551 0.031125 0.000000
0.217852 0.022525 0.000000
0.196559 0.033122 0.000000
0.027254 0.188697 0.000000
0.244375 0.023208 0.000000
0.033036 0.143005 0.000000
0.135750 0.023255 0.000000
0.053176 0.047816 0.000000
0.107516 0.088819 0.000000
0.038325 0.020166 0.000000
0.071225 0.170840 0.000000
0.090323 0.022329 0.000000
0.074127 0.125759 0.000000
0.115993 0.029684 0.000000
0.050000 -0.075000 0.000000
0.050000 -0.050000 0.000000
0.050000 -0.025000 0.000000
0.050000 0.000000 0.000000
0.251915 0.131113 0.000000
0.179219 0.201666 0.000000
0.247542 0.143780 0.000000
0.025081 0.036559 0.000000
0.030173 0.159568 0.000000
0.496246 0.046324 0.000000
0.201204 0.084696 0.000000
0.633182 0.043039 0.000000
0.251858 0.097750 0.000000
0.273260 0.151783 0.000000
0.040448 0.074540 0.000000
0.293595 0.053044 0.000000
0.082908 0.146091 0.000000
0.215703 0.118362 0.000000
0.103868 0.062708 0.000000
0.026990 0.097269 0.000000
0.199769 0.054899 0.000000
0.256040 0.078674 0.000000
0.059133 0.203529 0.000000
0.094133 0.045422 0.000000
0.075000 -0.075000 0.000000
0.075000 -0.050000 0.000000
0.075000 -0.025000 0.000000
0.075000 0.000000 0.000000
0.192995 0.112606 0.000000
0.166616 0.099839 0.000000
0.439947 0.052981 0.000000
0.365193 0.020366 0.000000
0.606155 0.097496 0.000000
0.704107 0.022389 0.000000
0.727106 0.040513 0.000000
0.046062 0.108735 0.000000
0.542313 0.093897 0.000000
0.702273 0.042504 0.000000
0.492914 0.023209 0.000000
0.176509 0.123649 0.000000
0.242017 0.046230 0.000000
0.279233 0.094549 0.000000
0.292834 0.019239 0.000000
0.076934 0.106168 0.000000
0.220821 0.099879 0.000000
0.020363 0.063168 0.000000
0.171611 0.081382 0.000000
0.144372 0.081126 0.000000
0.100000 -0.075000 0.000000
0.100000 -0.050000 0.000000
0.100000 -0.025000 0.000000
0.100000 0.000000 0.000000
0.541338 0.023302 0.000000
0.464283 0.094268 0.000000
0.558439 0.045393 0.000000
0.842505 0.023052 0.000000
0.262440 0.052511 0.000000
0.800422 0.022093 0.000000
0.736396 0.087745 0.000000
0.310261 0.048882 0.000000
0.744794 0.021712 0.000000
0.752310 0.042950 0.000000
0.520047 0.026193 0.000000
0.450393 0.120809 0.000000
0.626721 0.065860 0.000000
0.664348 0.046378 0.000000
0.260582 0.191428 0.000000
0.323795 0.028059 0.000000
0.596149 0.026012 0.000000
0.348349 0.099330 0.000000
0.426483 0.072168 0.000000
0.286502 0.073721 0.000000
0.125000 -0.075000 0.000000
0.125000 -0.050000 0.000000
0.125000 -0.025000 0.000000
0.125000 0.000000 0.000000
0.765881 0.089887 0.000000
0.818691 0.135602 0.000000
1.006333 0.094295 0.000000
0.864310 0.026261 0.000000
0.700540 0.117405 0.000000
0.650980 0.025612 0.000000
0.313176 0.132241 0.000000
0.629103 0.129987 0.000000
0.833377 0.072943 0.000000
0.791518 0.073761 0.000000
0.945441 0.064450 0.000000
0.631082 0.087846 0.000000
0.570104 0.024629 0.000000
0.578937 0.053109 0.000000
0.465787 0.026055 0.000000
0.605343 0.075482 0.000000
0.465409 0.132084 0.000000
0.135892 0.102724 0.000000
0.560245 0.071656 0.000000
0.043463 0.177686 0.000000
0.150000 -0.075000 0.000000
0.150000 -0.050000 0.000000
0.150000 -0.025000 0.000000
0.150000 0.000000 0.000000
0.334127 0.059624 0.000000
0.964671 0.021470 0.000000
0.794793 0.114210 0.000000
0.378365 0.062229 0.000000
0.914773 0.044747 0.000000
0.173834 0.059961 0.000000
0.971220 0.069780 0.000000
0.532219 0.069442 0.000000
0.997246 0.073958 0.000000
0.821621 0.122853 0.000000
0.886756 0.045308 0.000000
0.773826 0.028268 0.000000
0.868473 0.051527 0.000000
0.841279 0.097693 0.000000
0.821151 0.032927 0.000000
0.693564 0.064753 0.000000
0.675346 0.024188 0.000000
0.705114 0.078266 0.000000
0.729353 0.063770 0.000000
0.400338 0.111212 0.000000
0.175000 -0.075000 0.000000
0.175000 -0.050000 0.000000
0.175000 -0.025000 0.000000
0.175000 0.000000 0.000000
0.021836 0.128367 0.000000
0.737118 0.120208 0.000000
0.965697 0.120591 0.000000
0.940321 0.123851 0.000000
0.973235 0.038676 0.000000
0.090133 0.160737 0.000000
0.896734 0.020711 0.000000
0.378632 0.040860 0.000000
0.441780 0.021844 0.000000
0.928721 0.025410 0.000000
0.667022 0.116465 0.000000
0.800616 0.096939 0.000000
0.591240 0.099100 0.000000
0.942964 0.043591 0.000000
0.994326 0.045648 0.000000
0.461238 0.049098 0.000000
1.001136 0.025920 0.000000
0.549488 0.128449 0.000000
0.296556 0.114556 0.000000
0.559697 0.110843 0.000000
0.200000 -0.075000 0.000000
0.200000 -0.050000 0.000000
0.200000 -0.025000 0.000000
0.200000 0.000000 0.000000
0.483413 0.086279 0.000000
0.123765 0.076537 0.000000
0.377577 0.080342 0.000000
0.872780 0.073297 0.000000
0.420125 0.044401 0.000000
0.439702 0.143172 0.000000
0.662615 0.065142 0.000000
0.975709 0.086997 0.000000
0.513775 0.120284 0.000000
0.070911 0.186859 0.000000
0.879289 0.083981 0.000000
0.777716 0.051004 0.000000
0.065641 0.030516 0.000000
0.527496 0.053705 0.000000
0.721373 0.117572 0.000000
0.115341 0.145528 0.000000
0.798663 0.048784 0.000000
0.497108 0.126300 0.000000
0.951766 0.111870 0.000000
0.753555 0.075155 0.000000
0.225000 -0.075000 0.000000
0.225000 -0.050000 0.000000
0.225000 -0.025000 0.000000
0.225000 0.000000 0.000000
0.370139 0.102930 0.000000
0.916829 0.061646 0.000000
0.652338 0.099463 0.000000
0.231435 0.078870 0.000000
0.161992 0.129356 0.000000
0.061994 0.252297 0.000000
0.568922 0.093684 0.000000
0.976723 0.111182 0.000000
0.701730 0.100573 0.000000
0.214404 0.139921 0.000000
0.762139 0.109805 0.000000
0.043875 0.225260 0.000000
0.407991 0.021088 0.000000
0.501747 0.065315 0.000000
0.103422 0.121169 0.000000
0.386966 0.116768 0.000000
0.598792 0.048159 0.000000
0.067937 0.060791 0.000000
0.356324 0.126214 0.000000
0.399736 0.047791 0.000000
0.250000 -0.075000 0.000000
0.250000 -0.050000 0.000000
0.250000 -0.025000 0.000000
0.250000 0.000000 0.000000
0.815618 0.074330 0.000000
0.494281 0.105664 0.000000
0.410122 0.153075 0.000000
0.423123 0.102393 0.000000
0.349800 0.060389 0.000000
0.521075 0.105095 0.000000
0.275751 0.125165 0.000000
0.326738 0.091006 0.000000
0.306813 0.094889 0.000000
0.638209 0.120284 0.000000
0.326979 0.115718 0.000000
0.031705 0.215413 0.000000
0.121098 0.122389 0.000000
0.621489 0.025202 0.000000
0.473939 0.065906 0.000000
0.409433 0.087258 0.000000
0.442977 0.096829 0.000000
0.839792 0.052428 0.000000
0.057087 0.091670 0.000000
0.666293 0.086059 0.000000
0.275000 -0.075000 0.000000
0.275000 -0.050000 0.000000
0.275000 -0.025000 0.000000
0.275000 0.000000 0.000000
0.300000 -0.075000 0.000000
0.300000 -0.050000 0.000000
0.300000 -0.025000 0.000000
0.300000 0.000000 0.000000
0.325000 -0.075000 0.000000
0.325000 -0.050000 0.000000
0.325000 -0.025000 0.000000
0.325000 0.000000 0.000000
0.350000 -0.075000 0.000000
0.350000 -0.050000 0.000000
0.350000 -0.025000 0.000000
0.350000 0.000000 0.000000
0.375000 -0.075000 0.000000
0.375000 -0.050000 0.000000
0.375000 -0.025000 0.000000
0.375000 0.000000 0.000000
0.400000 -0.075000 0.000000
0.400000 -0.050000 0.000000
0.400000 -0.025000 0.000000
0.400000 0.000000 0.000000
0.425000 -0.075000 0.000000
0.425000 -0.050000 0.000000
0.425000 -0.025000 0.000000
0.425000 0.000000 0.000000
0.450000 -0.075000 0.000000
0.450000 -0.050000 0.000000
0.450000 -0.025000 0.000000
0.450000 0.000000 0.000000
0.475000 -0.075000 0.000000
0.475000 -0.050000 0.000000
0.475000 -0.025000 0.000000
0.475000 0.000000 0.000000
0.500000 -0.075000 0.000000
0.500000 -0.050000 0.000000
0.500000 -0.025000 0.000000
0.500000 0.000000 0.000000
0.525000 -0.075000 0.000000
0.525000 -0.050000 0.000000
0.525000 -0.025000 0.000000
0.525000 0.000000 0.000000
0.550000 -0.075000 0.000000
0.550000 -0.050000 0.000000
0.550000 -0.025000 0.000000
0.550000 0.000000 0.000000
0.575000 -0.075000 0.000000
0.575000 -0.050000 0.000000
0.575000 -0.025000 0.000000
0.575000 0.000000 0.000000
0.600000 -0.075000 0.000000
0.600000 -0.050000 0.000000
0.600000 -0.025000 0.000000
0.600000 0.000000 0.000000
0.625000 -0.075000 0.000000
0.625000 -0.050000 0.000000
0.625000 -0.025000 0.000000
0.625000 0.000000 0.000000
0.650000 -0.075000 0.000000
0.650000 -0.050000 0.000000
0.650000 -0.025000 0.000000
0.650000 0.000000 0.000000
0.675000 -0.075000 0.000000
0.675000 -0.050000 0.000000
0.675000 -0.025000 0.000000
0.675000 0.000000 0.000000
0.700000 -0.075000 0.000000
0.700000 -0.050000 0.000000
0.700000 -0.025000 0.000000
0.700000 0.000000 0.000000
0.725000 -0.075000 0.000000
0.725000 -0.050000 0.000000
0.725000 -0.025000 0.000000
0.725000 0.000000 0.000000
0.750000 -0.075000 0.000000
0.750000 -0.050000 0.000000
0.750000 -0.025000 0.000000
0.750000 0.000000 0.000000
0.775000 -0.075000 0.000000
0.775000 -0.050000 0.000000
0.775000 -0.025000 0.000000
0.775000 0.000000 0.000000
0.800000 -0.075000 0.000000
0.800000 -0.050000 0.000000
0.800000 -0.025000 0.000000
0.800000 0.000000 0.000000
0.825000 -0.075000 0.000000
0.825000 -0.050000 0.000000
0.825000 -0.025000 0.000000
0.825000 0.000000 0.000000
0.850000 -0.075000 0.000000
0.850000 -0.050000 0.000000
0.850000 -0.025000 0.000000
0.850000 0.000000 0.000000
0.875000 -0.075000 0.000000
0.875000 -0.050000 0.000000
0.875000 -0.025000 0.000000
0.875000 0.000000 0.000000
0.900000 -0.075000 0.000000
0.900000 -0.050000 0.000000
0.900000 -0.025000 0.000000
0.900000 0.000000 0.000000
0.925000 -0.075000 0.000000
0.925000 -0.050000 0.000000
0.925000 -0.025000 0.000000
0.925000 0.000000 0.000000
0.950000 -0.075000 0.000000
0.950000 -0.050000 0.000000
0.950000 -0.025000 0.000000
0.950000 0.000000 0.000000
0.975000 -0.075000 0.000000
0.975000 -0.050000 0.000000
0.975000 -0.025000 0.000000
0.975000 0.000000 0.000000
1.000000 -0.075000 0.000000
1.000000 -0.050000 0.000000
1.000000 -0.025000 0.000000
1.000000 0.000000 0.000000
1.025000 -0.075000 0.000000
1.025000 -0.050000 0.000000
1.025000 -0.025000 0.000000
1.025000 0.000000 0.000000
1.025000 0.025000 0.000000
1.025000 0.050000 0.000000
1.025000 0.075000 0.000000
1.025000 0.100000 0.000000
1.025000 0.125000 0.000000
1.025000 0.150000 0.000000
1.025000 0.175000 0.000000
1.025000 0.200000 0.000000
1.025000 0.225000 0.000000
1.025000 0.250000 0.000000
1.025000 0.275000 0.000000
1.025000 0.300000 0.000000
1.025000 0.325000 0.000000
1.025000 0.350000 0.000000
1.025000 0.375000 0.000000
1.025000 0.400000 0.000000
1.025000 0.425000 0.000000
1.025000 0.450000 0.000000
1.025000 0.475000 0.000000
1.025000 0.500000 0.000000
1.025000 0.525000 0.000000
1.025000 0.550000 0.000000
1.025000 0.575000 0.000000
1.025000 0.600000 0.000000
1.050000 -0.075000 0.000000
1.050000 -0.050000 0.000000
1.050000 -0.025000 0.000000
1.050000 0.000000 0.000000
1.050000 0.025000 0.000000
1.050000 0.050000 0.000000
1.050000 0.075000 0.000000
1.050000 0.100000 0.000000
1.050000 0.125000 0.000000
1.050000 0.150000 0.000000
1.050000 0.175000 0.000000
1.050000 0.200000 0.000000
1.050000 0.225000 0.000000
1.050000 0.250000 0.000000
1.050000 0.275000 0.000000
1.050000 0.300000 0.000000
1.050000 0.325000 0.000000
1.050000 0.350000 0.000000
1.050000 0.375000 0.000000
1.050000 0.400000 0.000000
1.050000 0.425000 0.000000
1.050000 0.450000 0.000000
1.050000 0.475000 0.000000
1.050000 0.500000 0.000000
1.050000 0.525000 0.000000
1.050000 0.550000 0.000000
1.050000 0.575000 0.000000
1.050000 0.600000 0.000000
1.075000 -0.075000 0.000000
1.075000 -0.050000 0.000000
1.075000 -0.025000 0.000000
1.075000 0.000000 0.000000
1.075000 0.025000 0.000000
1.075000 0.050000 0.000000
1.075000 0.075000 0.000000
1.075000 0.100000 0.000000
1.075000 0.125000 0.000000
1.075000 0.150000 0.000000
1.075000 0.175000 0.000000
1.075000 0.200000 0.000000
1.075000 0.225000 0.000000
1.075000 0.250000 0.000000
1.075000 0.275000 0.000000
1.075000 0.300000 0.000000
1.075000 0.325000 0.000000
1.075000 0.350000 0.000000
1.075000 0.375000 0.000000
1.075000 0.400000 0.000000
1.075000 0.425000 0.000000
1.075000 0.450000 0.000000
1.075000 0.475000 0.000000
1.075000 0.500000 0.000000
1.075000 0.525000 0.000000
1.075000 0.550000 0.000000
1.075000 0.575000 0.000000
1.075000 0.600000 0.000000
1.100000 -0.075000 0.000000
1.100000 -0.050000 0.000000
1.100000 -0.025000 0.000000
1.100000 0.000000 0.000000
1.100000 0.025000 0.000000
1.100000 0.050000 0.000000
1.100000 0.075000 0.000000
1.100000 0.100000 0.000000
1.100000 0.125000 0.000000
1.100000 0.150000 0.000000
1.100000 0.175000 0.000000
1.100000 0.200000 0.000000
1.100000 0.225000 0.000000
1.100000 0.250000 0.000000
1.100000 0.275000 0.000000
1.100000 0.300000 0.000000
1.100000 0.325000 0.000000
1.100000 0.350000 0.000000
1.100000 0.375000 0.000000
1.100000 0.400000 0.000000
1.100000 0.425000 0.000000
1.100000 0.450000 0.000000
1.100000 0.475000 0.000000
1.100000 0.500000 0.000000
1.100000 0.525000 0.000000
1.100000 0.550000 0.000000
1.100000 0.575000 0.000000
1.100000 0.600000 0.000000
</DataArray>
</Points>
<PointData>
<DataArray NumberOfComponents='1' type='Int32' Name='ParticleType' format='ascii'>
3
3
3
3
3
3
3
3
3
3
3
3
3
3
3
3
3
3
3
3
3
3
3
3
3
3
2
2
3
3
3
3
3
3
3
3
3
3
3
3
3
3
3
3
3
3
3
3
3
3
3
3
3
3
2
2
3
3
2
2
2
2
2
2
2
2
2
2
2
2
2
2
2
2
2
2
2
2
2
2
2
2
2
2
3
3
2
2
2
2
2
2
2
2
2
2
2
2
2
2
2
2
2
2
2
2
2
2
2
2
2
2
3
3
2
2
0
0
0
0
0
0
0
0
0
0
0
0
0
0
0
0
0
0
0
0
3
3
2
2
0
0
0
0
0
0
0
0
0
0
0
0
0
0
0
0
0
0
0
0
3
3
2
2
0
0
0
0
0
0
0
0
0
0
0
0
0
0
0
0
0
0
0
0
3
3
2
2
0
0
0
0
0
0
0
0
0
0
0
0
0
0
0
0
0
0
0
0
3
3
2
2
0
0
0
0
0
0
0
0
0
0
0
0
0
0
0
0
0
0
0
0
3
3
2
2
0
0
0
0
0
0
0
0
0
0
0
0
0
0
0
0
0
0
0
0
3
3
2
2
0
0
0
0
0
0
0
0
0
0
0
0
0
0
0
0
0
0
0
0
3
3
2
2
0
0
0
0
0
0
0
0
0
0
0
0
0
0
0
0
0
0
0
0
3
3
2
2
0
0
0
0
0
0
0
0
0
0
0
0
0
0
0
0
0
0
0
0
3
3
2
2
0
0
0
0
0
0
0
0
0
0
0
0
0
0
0
0
0
0
0
0
3
3
2
2
3
3
2
2
3
3
2
2
3
3
2
2
3
3
2
2
3
3
2
2
3
3
2
2
3
3
2
2
3
3
2
2
3
3
2
2
3
3
2
2
3
3
2
2
3
3
2
2
3
3
2
2
3
3
2
2
3
3
2
2
3
3
2
2
3
3
2
2
3
3
2
2
3
3
2
2
3
3
2
2
3
3
2
2
3
3
2
2
3
3
2
2
3
3
2
2
3
3
2
2
3
3
2
2
3
3
2
2
3
3
2
2
3
3
2
2
3
3
2
2
2
2
2
2
2
2
2
2
2
2
2
2
2
2
2
2
2
2
2
2
2
2
2
2
3
3
2
2
2
2
2
2
2
2
2
2
2
2
2
2
2
2
2
2
2
2
2
2
2
2
2
2
3
3
3
3
3
3
3
3
3
3
3
3
3
3
3
3
3
3
3
3
3
3
3
3
3
3
2
2
3
3
3
3
3
3
3
3
3
3
3
3
3
3
3
3
3
3
3
3
3
3
3
3
3
3
2
2
</DataArray>
<DataArray NumberOfComponents='1' type='Float32' Name='Velocity' format='ascii'>
0.000000
0.000000
0.000000
0.000000
0.000000
0.000000
0.000000
0.000000
0.000000
0.000000
0.000000
0.000000
0.000000
0.000000
0.000000
0.000000
0.000000
0.000000
0.000000
0.000000
0.000000
0.000000
0.000000
0.000000
0.000000
0.000000
0.000000
0.000000
0.000000
0.000000
0.000000
0.000000
0.000000
0.000000
0.000000
0.000000
0.000000
0.000000
0.000000
0.000000
0.000000
0.000000
0.000000
0.000000
0.000000
0.000000
0.000000
0.000000
0.000000
0.000000
0.000000
0.000000
0.000000
0.000000
0.000000
0.000000
0.000000
0.000000
0.000000
0.000000
0.000000
0.000000
0.000000
0.000000
0.000000
0.000000
0.000000
0.000000
0.000000
0.000000
0.000000
0.000000
0.000000
0.000000
0.000000
0.000000
0.000000
0.000000
0.000000
0.000000
0.000000
0.000000
0.000000
0.000000
0.000000
0.000000
0.000000
0.000000
0.000000
0.000000
0.000000
0.000000
0.000000
0.000000
0.000000
0.000000
0.000000
0.000000
0.000000
0.000000
0.000000
0.000000
0.000000
0.000000
0.000000
0.000000
0.000000
0.000000
0.000000
0.000000
0.000000
0.000000
0.000000
0.000000
0.000000
0.000000
0.436085
0.295414
0.299727
0.020858
0.227482
0.563457
0.551373
0.144016
0.271814
0.950382
0.506682
0.737441
0.304174
0.685861
0.407752
0.078701
1.369521
0.329750
0.589009
0.141014
0.000000
0.000000
0.000000
0.000000
0.733220
1.569856
1.067428
0.397461
0.671265
0.488865
0.384516
0.670762
0.681880
0.767791
0.325726
0.773601
1.047926
0.797947
0.751297
0.264162
0.699813
0.516453
1.406006
0.768067
0.000000
0.000000
0.000000
0.000000
0.977747
0.291088
0.604474
0.365855
0.976393
0.373813
0.243410
0.354877
1.063406
0.501196
0.468106
1.157462
0.562196
1.200984
0.555078
0.990875
0.990903
0.062530
0.661921
0.299840
0.000000
0.000000
0.000000
0.000000
0.560723
0.733741
0.613398
0.125504
0.711913
0.226660
0.528396
0.854750
0.218981
0.479201
0.657371
1.189367
1.043549
0.432315
1.301077
0.350540
0.548986
0.652034
0.456521
0.639302
0.000000
0.000000
0.000000
0.000000
0.267155
1.124186
0.294642
0.416844
0.888992
0.538838
0.909031
1.129424
0.602858
0.261393
0.252301
0.765934
0.500126
0.818789
0.382865
0.718757
1.244995
0.335869
0.769462
0.673744
0.000000
0.000000
0.000000
0.000000
0.818694
0.267081
0.046202
0.965623
0.535740
0.241194
0.481222
0.984304
0.355125
1.643816
0.282751
0.170563
0.393921
0.489655
0.489651
0.428362
0.619394
0.382905
0.368762
0.765204
0.000000
0.000000
0.000000
0.000000
0.431248
0.728313
0.297449
0.687797
0.465020
0.623068
0.447369
0.512703
0.790054
0.262187
0.842572
0.597921
0.826340
0.162480
0.210615
0.325210
0.248874
0.591137
1.191118
1.296116
0.000000
0.000000
0.000000
0.000000
0.989327
0.661081
0.147061
0.822264
0.684233
1.152660
0.458875
0.235506
0.828783
1.382900
0.719354
0.619277
0.197554
0.345809
0.703160
0.845101
0.649710
0.928991
0.199531
0.403471
0.000000
0.000000
0.000000
0.000000
0.950424
0.524586
0.490441
0.469091
1.208885
0.810370
1.247115
0.385818
0.428655
1.468098
0.583893
1.804328
0.368019
0.434679
0.376619
0.800054
0.631370
0.331434
0.863882
0.761667
0.000000
0.000000
0.000000
0.000000
0.486599
0.973622
1.167172
0.581992
0.882612
1.044873
1.827631
0.817256
0.736647
0.982026
0.749515
1.277195
0.455926
0.484357
0.770416
0.868260
0.566834
0.422838
0.684763
1.008186
0.000000
0.000000
0.000000
0.000000
0.000000
0.000000
0.000000
0.000000
0.000000
0.000000
0.000000
0.000000
0.000000
0.000000
0.000000
0.000000
0.000000
0.000000
0.000000
0.000000
0.000000
0.000000
0.000000
0.000000
0.000000
0.000000
0.000000
0.000000
0.000000
0.000000
0.000000
0.000000
0.000000
0.000000
0.000000
0.000000
0.000000
0.000000
0.000000
0.000000
0.000000
0.000000
0.000000
0.000000
0.000000
0.000000
0.000000
0.000000
0.000000
0.000000
0.000000
0.000000
0.000000
0.000000
0.000000
0.000000
0.000000
0.000000
0.000000
0.000000
0.000000
0.000000
0.000000
0.000000
0.000000
0.000000
0.000000
0.000000
0.000000
0.000000
0.000000
0.000000
0.000000
0.000000
0.000000
0.000000
0.000000
0.000000
0.000000
0.000000
0.000000
0.000000
0.000000
0.000000
0.000000
0.000000
0.000000
0.000000
0.000000
0.000000
0.000000
0.000000
0.000000
0.000000
0.000000
0.000000
0.000000
0.000000
0.000000
0.000000
0.000000
0.000000
0.000000
0.000000
0.000000
0.000000
0.000000
0.000000
0.000000
0.000000
0.000000
0.000000
0.000000
0.000000
0.000000
0.000000
0.000000
0.000000
0.000000
0.000000
0.000000
0.000000
0.000000
0.000000
0.000000
0.000000
0.000000
0.000000
0.000000
0.000000
0.000000
0.000000
0.000000
0.000000
0.000000
0.000000
0.000000
0.000000
0.000000
0.000000
0.000000
0.000000
0.000000
0.000000
0.000000
0.000000
0.000000
0.000000
0.000000
0.000000
0.000000
0.000000
0.000000
0.000000
0.000000
0.000000
0.000000
0.000000
0.000000
0.000000
0.000000
0.000000
0.000000
0.000000
0.000000
0.000000
0.000000
0.000000
0.000000
0.000000
0.000000
0.000000
0.000000
0.000000
0.000000
0.000000
0.000000
0.000000
0.000000
0.000000
0.000000
0.000000
0.000000
0.000000
0.000000
0.000000
0.000000
0.000000
0.000000
0.000000
0.000000
0.000000
0.000000
0.000000
0.000000
0.000000
0.000000
0.000000
0.000000
0.000000
0.000000
0.000000
0.000000
0.000000
0.000000
0.000000
0.000000
0.000000
0.000000
0.000000
0.000000
0.000000
0.000000
0.000000
0.000000
0.000000
0.000000
0.000000
0.000000
0.000000
0.000000
0.000000
0.000000
0.000000
0.000000
0.000000
0.000000
0.000000
0.000000
0.000000
0.000000
0.000000
</DataArray>
<DataArray NumberOfComponents='1' type='Float32' Name='pressure' format='ascii'>
0.000000
0.000000
0.000000
0.000000
0.000000
0.000000
0.000000
0.000000
0.000000
0.000000
0.000000
0.000000
0.000000
0.000000
0.000000
0.000000
0.000000
0.000000
0.000000
0.000000
0.000000
0.000000
0.000000
0.000000
0.000000
0.000000
0.000000
0.000000
0.000000
0.000000
0.000000
0.000000
0.000000
0.000000
0.000000
0.000000
0.000000
0.000000
0.000000
0.000000
0.000000
0.000000
0.000000
0.000000
0.000000
0.000000
0.000000
0.000000
0.000000
0.000000
0.000000
0.000000
0.000000
0.000000
0.000000
0.000000
0.000000
0.000000
4532.830078
4349.246582
3937.975586
5493.745605
4865.903809
2194.107910
3118.257080
641.703979
0.000000
0.000000
0.000000
0.000000
0.000000
0.000000
0.000000
0.000000
0.000000
0.000000
0.000000
0.000000
0.000000
0.000000
0.000000
0.000000
0.000000
0.000000
0.000000
0.000000
4969.719238
3644.319336
2770.924316
5287.554688
4215.457031
0.000000
4493.837402
572.744507
0.000000
0.000000
0.000000
0.000000
0.000000
0.000000
0.000000
0.000000
0.000000
0.000000
0.000000
0.000000
0.000000
0.000000
0.000000
0.000000
0.000000
0.000000
0.000000
0.000000
6516.090332
5441.738281
0.000000
2232.948975
2601.914307
1857.631592
0.000000
2131.196045
1810.466919
1879.967529
1914.728516
0.000000
2016.095947
2005.835327
4033.263428
5981.152832
3635.326904
7176.412598
2247.969482
5287.112793
0.000000
2564.290771
0.000000
0.000000
6810.145508
6418.079102
683.326904
0.000000
0.000000
4861.577148
1888.090698
1758.677734
0.000000
514.196716
0.000000
0.000000
4043.133057
1768.935913
902.710449
0.000000
3565.740967
0.000000
963.391968
1590.163086
0.000000
5813.949707
0.000000
0.000000
5219.359375
2968.100830
1633.335205
1991.677734
1706.879517
1949.324829
727.762695
1190.778198
1818.262207
0.000000
0.000000
1156.677246
325.128143
0.000000
2843.749268
0.000000
593.336975
1061.177124
1092.660400
5053.735840
1431.556641
0.000000
0.000000
0.000000
5010.384277
5575.348633
746.176147
295.478333
1926.560791
1163.073364
2440.311523
79.323685
0.000000
1891.359131
2074.778076
0.000000
285.779663
0.000000
0.000000
1293.001099
0.000000
735.112610
1361.713745
0.000000
0.000000
0.000000
0.000000
0.000000
3700.291504
3249.899658
0.000000
0.000000
0.000000
0.000000
0.000000
1262.636475
0.000000
0.000000
0.000000
0.000000
0.000000
781.020264
1126.857422
207.710342
995.062195
0.000000
0.000000
0.000000
0.000000
2609.202393
0.000000
0.000000
2416.954346
1541.638306
754.933899
806.914490
0.000000
3007.181396
369.068390
0.000000
0.000000
0.000000
0.000000
0.000000
0.000000
554.707703
840.136353
0.000000
0.000000
283.400482
943.884399
822.495789
0.000000
1049.424561
0.000000
0.000000
2175.900391
680.643066
2101.759521
0.000000
0.000000
0.000000
722.770142
0.000000
0.000000
2037.924683
1451.209717
0.000000
0.000000
0.000000
0.000000
0.000000
0.000000
3512.671387
0.000000
0.000000
151.704376
0.000000
0.000000
0.000000
1754.316895
116.038002
2372.373535
3800.720215
0.000000
0.000000
3349.460693
0.000000
1.723698
105.586571
0.000000
0.000000
0.000000
747.114075
3602.762695
807.707825
0.000000
0.000000
600.888733
0.000000
0.000000
1051.985352
0.000000
0.000000
3339.085693
3443.265137
603.950806
0.000000
869.552979
643.378174
0.000000
0.000000
2844.718018
0.000000
398.437866
0.000000
0.000000
0.000000
0.000000
0.000000
1176.571411
0.000000
806.107544
4157.376953
0.000000
2162.999268
0.000000
0.000000
3351.814209
2901.618164
635.911987
1585.955200
0.000000
0.000000
2018.914185
787.256958
0.000000
0.000000
3740.403809
0.000000
0.000000
0.000000
0.000000
0.000000
1897.967407
2134.902100
1397.223755
0.000000
5973.276367
0.000000
0.000000
0.000000
3671.195312
1326.061768
0.000000
0.000000
4560.387695
3753.150391
0.000000
0.000000
1694.589722
0.000000
0.000000
0.000000
3331.391357
2349.516602
0.000000
0.000000
4173.195801
2520.710938
0.000000
0.000000
4176.573242
1700.910767
0.000000
0.000000
4167.025391
2273.808350
0.000000
0.000000
3635.481201
3344.227783
0.000000
0.000000
2171.109863
1619.102661
0.000000
0.000000
2552.322021
2822.565674
0.000000
0.000000
1865.469238
2086.922363
0.000000
0.000000
1665.824707
2338.384277
0.000000
0.000000
663.841309
0.000000
0.000000
0.000000
0.000000
0.000000
0.000000
0.000000
252.976196
0.000000
0.000000
0.000000
900.128296
1321.064087
0.000000
0.000000
2035.836914
2939.815674
0.000000
0.000000
2691.932861
2496.862305
0.000000
0.000000
1507.914673
0.000000
0.000000
0.000000
2080.437256
1279.969727
0.000000
0.000000
19.369093
0.000000
0.000000
0.000000
1758.708984
1948.106567
0.000000
0.000000
403.889099
369.181305
0.000000
0.000000
1098.568604
817.180298
0.000000
0.000000
353.687744
0.000000
0.000000
0.000000
1546.159424
1681.203369
0.000000
0.000000
0.000000
0.000000
0.000000
0.000000
0.000000
0.000000
0.000000
0.000000
0.000000
0.000000
0.000000
0.000000
0.000000
0.000000
0.000000
0.000000
0.000000
0.000000
0.000000
0.000000
0.000000
140.252304
0.000000
0.000000
0.000000
0.000000
0.000000
0.000000
0.000000
0.000000
0.000000
0.000000
0.000000
0.000000
0.000000
0.000000
0.000000
0.000000
0.000000
0.000000
0.000000
0.000000
0.000000
0.000000
0.000000
0.000000
0.000000
0.000000
778.681885
2332.402832
0.000000
0.000000
0.000000
0.000000
0.000000
0.000000
0.000000
0.000000
0.000000
0.000000
0.000000
0.000000
0.000000
0.000000
0.000000
0.000000
0.000000
0.000000
0.000000
0.000000
0.000000
0.000000
0.000000
0.000000
0.000000
0.000000
0.000000
0.000000
0.000000
0.000000
0.000000
0.000000
0.000000
0.000000
0.000000
0.000000
0.000000
0.000000
0.000000
0.000000
0.000000
0.000000
0.000000
0.000000
0.000000
0.000000
0.000000
0.000000
0.000000
0.000000
0.000000
0.000000
0.000000
0.000000
0.000000
0.000000
0.000000
0.000000
0.000000
0.000000
0.000000
0.000000
0.000000
0.000000
0.000000
0.000000
0.000000
0.000000
0.000000
0.000000
0.000000
0.000000
0.000000
0.000000
0.000000
0.000000
</DataArray>
</PointData>
<Cells>
<DataArray type='Int32' Name='connectivity' format='ascii'>
0
1
2
3
4
5
6
7
8
9
10
11
12
13
14
15
16
17
18
19
20
21
22
23
24
25
26
27
28
29
30
31
32
33
34
35
36
37
38
39
40
41
42
43
44
45
46
47
48
49
50
51
52
53
54
55
56
57
58
59
60
61
62
63
64
65
66
67
68
69
70
71
72
73
74
75
76
77
78
79
80
81
82
83
84
85
86
87
88
89
90
91
92
93
94
95
96
97
98
99
100
101
102
103
104
105
106
107
108
109
110
111
112
113
114
115
116
117
118
119
120
121
122
123
124
125
126
127
128
129
130
131
132
133
134
135
136
137
138
139
140
141
142
143
144
145
146
147
148
149
150
151
152
153
154
155
156
157
158
159
160
161
162
163
164
165
166
167
168
169
170
171
172
173
174
175
176
177
178
179
180
181
182
183
184
185
186
187
188
189
190
191
192
193
194
195
196
197
198
199
200
201
202
203
204
205
206
207
208
209
210
211
212
213
214
215
216
217
218
219
220
221
222
223
224
225
226
227
228
229
230
231
232
233
234
235
236
237
238
239
240
241
242
243
244
245
246
247
248
249
250
251
252
253
254
255
256
257
258
259
260
261
262
263
264
265
266
267
268
269
270
271
272
273
274
275
276
277
278
279
280
281
282
283
284
285
286
287
288
289
290
291
292
293
294
295
296
297
298
299
300
301
302
303
304
305
306
307
308
309
310