<?xml version='1.0' encoding='UTF-8'?>
<VTKFile xmlns='VTK' byte_order='LittleEndian' version='0.1' type='UnstructuredGrid'>
<UnstructuredGrid>
<Piece NumberOfCells='584' NumberOfPoints='584'>
<Points>
<DataArray NumberOfComponents='3' type='Float32' Name='Position' format='ascii'>
-0.075000 -0.075000 0.000000
-0.075000 -0.050000 0.000000
-0.075000 -0.025000 0.000000
-0.075000 0.000000 0.000000
-0.075000 0.025000 0.000000
-0.075000 0.050000 0.000000
-0.075000 0.075000 0.000000
-0.075000 0.100000 0.000000
-0.075000 0.125000 0.000000
-0.075000 0.150000 0.000000
-0.075000 0.175000 0.000000
-0.075000 0.200000 0.000000
-0.075000 0.225000 0.000000
-0.075000 0.250000 0.000000
-0.075000 0.275000 0.000000
-0.075000 0.300000 0.000000
-0.075000 0.325000 0.000000
-0.075000 0.350000 0.000000
-0.075000 0.375000 0.000000
-0.075000 0.400000 0.000000
-0.075000 0.425000 0.000000
-0.075000 0.450000 0.000000
-0.075000 0.475000 0.000000
-0.075000 0.500000 0.000000
-0.075000 0.525000 0.000000
-0.075000 0.550000 0.000000
-0.075000 0.575000 0.000000
-0.075000 0.600000 0.000000
-0.050000 -0.075000 0.000000
-0.050000 -0.050000 0.000000
-0.050000 -0.025000 0.000000
-0.050000 0.000000 0.000000
-0.050000 0.025000 0.000000
-0.050000 0.050000 0.000000
-0.050000 0.075000 0.000000
-0.050000 0.100000 0.000000
-0.050000 0.125000 0.000000
-0.050000 0.150000 0.000000
-0.050000 0.175000 0.000000
-0.050000 0.200000 0.000000
-0.050000 0.225000 0.000000
-0.050000 0.250000 0.000000
-0.050000 0.275000 0.000000
-0.050000 0.300000 0.000000
-0.050000 0.325000 0.000000
-0.050000 0.350000 0.000000
-0.050000 0.375000 0.000000
-0.050000 0.400000 0.000000
-0.050000 0.425000 0.000000
-0.050000 0.450000 0.000000
-0.050000 0.475000 0.000000
-0.050000 0.500000 0.000000
-0.050000 0.525000 0.000000
-0.050000 0.550000 0.000000
-0.050000 0.575000 0.000000
-0.050000 0.600000 0.000000
-0.025000 -0.075000 0.000000
-0.025000 -0.050000 0.000000
-0.025000 -0.025000 0.000000
-0.025000 0.000000 0.000000
-0.025000 0.025000 0.000000
-0.025000 0.050000 0.000000
-0.025000 0.075000 0.000000
-0.025000 0.100000 0.000000
-0.025000 0.125000 0.000000
-0.025000 0.150000 0.000000
-0.025000 0.175000 0.000000
-0.025000 0.200000 0.000000
-0.025000 0.225000 0.000000
-0.025000 0.250000 0.000000
-0.025000 0.275000 0.000000
-0.025000 0.300000 0.000000
-0.025000 0.325000 0.000000
-0.025000 0.350000 0.000000
-0.025000 0.375000 0.000000
-0.025000 0.400000 0.000000
-0.025000 0.425000 0.000000
-0.025000 0.450000 0.000000
-0.025000 0.475000 0.000000
-0.025000 0.500000 0.000000
-0.025000 0.525000 0.000000
-0.025000 0.550000 0.000000
-0.025000 0.575000 0.000000
-0.025000 0.600000 0.000000
0.000000 -0.075000 0.000000
0.000000 -0.050000 0.000000
0.000000 -0.025000 0.000000
0.000000 0.000000 0.000000
0.000000 0.025000 0.000000
0.000000 0.050000 0.000000
0.000000 0.075000 0.000000
0.000000 0.100000 0.000000
0.000000 0.125000 0.000000
0.000000 0.150000 0.000000
0.000000 0.175000 0.000000
0.000000 0.200000 0.000000
0.000000 0.225000 0.000000
0.000000 0.250000 0.000000
0.000000 0.275000 0.000000
0.000000 0.300000 0.000000
0.000000 0.325000 0.000000
0.000000 0.350000 0.000000
0.000000 0.375000 0.000000
0.000000 0.400000 0.000000
0.000000 0.425000 0.000000
0.000000 0.450000 0.000000
0.000000 0.475000 0.000000
0.000000 0.500000 0.000000
0.000000 0.525000 0.000000
0.000000 0.550000 0.000000
0.000000 0.575000 0.000000
0.000000 0.600000 0.000000
0.025000 -0.075000 0.000000
0.025000 -0.050000 0.000000
0.025000 -0.025000 0.000000
0.025000 0.000000 0.000000
0.119397 0.053050 0.000000
0.205063 0.075004 0.000000
0.142268 0.028436 0.000000
0.171172 0.022269 0.000000
0.256168 0.022400 0.000000
0.082686 0.105645 0.000000
0.316530 0.020805 0.000000
0.209156 0.029149 0.000000
0.185245 0.035214 0.000000
0.026389 0.229198 0.000000
0.230090 0.023610 0.000000
0.054948 0.166214 0.000000
0.125282 0.024535 0.000000
0.039700 0.051160 0.000000
0.104884 0.114644 0.000000
0.042980 0.024907 0.000000
0.046828 0.199651 0.000000
0.092584 0.021839 0.000000
0.074527 0.156267 0.000000
0.095251 0.044175 0.000000
0.050000 -0.075000 0.000000
0.050000 -0.050000 0.000000
0.050000 -0.025000 0.000000
0.050000 0.000000 0.000000
0.184271 0.163997 0.000000
0.106592 0.151383 0.000000
0.165485 0.177385 0.000000
0.021985 0.030650 0.000000
0.020743 0.163161 0.000000
0.472394 0.056769 0.000000
0.183455 0.090721 0.000000
0.608020 0.046865 0.000000
0.187210 0.133861 0.000000
0.253117 0.178520 0.000000
0.064800 0.097172 0.000000
0.252130 0.059199 0.000000
0.066684 0.205456 0.000000
0.172981 0.153911 0.000000
0.088050 0.073461 0.000000
0.025847 0.087381 0.000000
0.175125 0.066649 0.000000
0.224086 0.082170 0.000000
0.050369 0.274528 0.000000
0.071193 0.052972 0.000000
0.075000 -0.075000 0.000000
0.075000 -0.050000 0.000000
0.075000 -0.025000 0.000000
0.075000 0.000000 0.000000
0.155525 0.129811 0.000000
0.150820 0.098862 0.000000
0.417967 0.061737 0.000000
0.347549 0.027073 0.000000
0.543309 0.108416 0.000000
0.693499 0.022180 0.000000
0.708040 0.043621 0.000000
0.021152 0.120164 0.000000
0.483306 0.102876 0.000000
0.671399 0.039013 0.000000
0.463805 0.023445 0.000000
0.126597 0.151202 0.000000
0.209092 0.052018 0.000000
0.245859 0.097817 0.000000
0.265653 0.044734 0.000000
0.054771 0.123421 0.000000
0.174768 0.113656 0.000000
0.027888 0.067752 0.000000
0.154077 0.071665 0.000000
0.129781 0.070199 0.000000
0.100000 -0.075000 0.000000
0.100000 -0.050000 0.000000
0.100000 -0.025000 0.000000
0.100000 0.000000 0.000000
0.513973 0.022062 0.000000
0.425206 0.118795 0.000000
0.519994 0.046318 0.000000
0.828446 0.027148 0.000000
0.232728 0.055458 0.000000
0.785004 0.025096 0.000000
0.702676 0.087199 0.000000
0.287560 0.045524 0.000000
0.720669 0.025755 0.000000
0.737806 0.041339 0.000000
0.484924 0.027969 0.000000
0.384867 0.129309 0.000000
0.581161 0.048730 0.000000
0.635450 0.037225 0.000000
0.190828 0.208544 0.000000
0.289245 0.025765 0.000000
0.564577 0.024399 0.000000
0.313430 0.074734 0.000000
0.394898 0.067485 0.000000
0.267247 0.087103 0.000000
0.125000 -0.075000 0.000000
0.125000 -0.050000 0.000000
0.125000 -0.025000 0.000000
0.125000 0.000000 0.000000
0.763147 0.096330 0.000000
0.774397 0.168781 0.000000
0.999194 0.085530 0.000000
0.849873 0.030034 0.000000
0.648666 0.092608 0.000000
0.618310 0.026590 0.000000
0.260656 0.111289 0.000000
0.568290 0.089095 0.000000
0.810098 0.082211 0.000000
0.775314 0.066472 0.000000
0.929895 0.054545 0.000000
0.596640 0.072872 0.000000
0.539961 0.026423 0.000000
0.541984 0.061126 0.000000
0.432847 0.024912 0.000000
0.548848 0.085792 0.000000
0.399540 0.149022 0.000000
0.137268 0.109420 0.000000
0.521178 0.071915 0.000000
0.036318 0.177241 0.000000
0.150000 -0.075000 0.000000
0.150000 -0.050000 0.000000
0.150000 -0.025000 0.000000
0.150000 0.000000 0.000000
0.285283 0.079104 0.000000
0.962655 0.023954 0.000000
0.797137 0.101737 0.000000
0.327717 0.058527 0.000000
0.896857 0.025635 0.000000
0.160705 0.051327 0.000000
0.944945 0.054147 0.000000
0.483382 0.077480 0.000000
0.980906 0.064163 0.000000
0.731006 0.144301 0.000000
0.876995 0.057762 0.000000
0.755547 0.022765 0.000000
0.852893 0.054433 0.000000
0.834308 0.109554 0.000000
0.807172 0.025510 0.000000
0.658461 0.060436 0.000000
0.654861 0.021399 0.000000
0.684580 0.057452 0.000000
0.706139 0.066868 0.000000
0.352125 0.108876 0.000000
0.175000 -0.075000 0.000000
0.175000 -0.050000 0.000000
0.175000 -0.025000 0.000000
0.175000 0.000000 0.000000
0.045482 0.142207 0.000000
0.700765 0.105129 0.000000
0.947106 0.104148 0.000000
0.899280 0.113384 0.000000
0.983028 0.040141 0.000000
0.104808 0.211164 0.000000
0.872031 0.025192 0.000000
0.361166 0.039849 0.000000
0.409544 0.024711 0.000000
0.918064 0.023677 0.000000
0.622639 0.113353 0.000000
0.775617 0.097769 0.000000
0.526607 0.109362 0.000000
0.944242 0.033044 0.000000
1.002687 0.054680 0.000000
0.447277 0.042528 0.000000
0.995857 0.021714 0.000000
0.524016 0.138236 0.000000
0.241726 0.120299 0.000000
0.494202 0.116074 0.000000
0.200000 -0.075000 0.000000
0.200000 -0.050000 0.000000
0.200000 -0.025000 0.000000
0.200000 0.000000 0.000000
0.428120 0.087711 0.000000
0.107488 0.072939 0.000000
0.351015 0.091184 0.000000
0.829986 0.069182 0.000000
0.395074 0.039562 0.000000
0.369449 0.134100 0.000000
0.639696 0.063703 0.000000
0.968609 0.079146 0.000000
0.470057 0.135221 0.000000
0.035635 0.219502 0.000000
0.852695 0.074136 0.000000
0.744373 0.065912 0.000000
0.066482 0.025078 0.000000
0.497643 0.046843 0.000000
0.676373 0.104970 0.000000
0.082697 0.183885 0.000000
0.764454 0.044122 0.000000
0.445417 0.142548 0.000000
0.934429 0.101681 0.000000
0.741718 0.083038 0.000000
0.225000 -0.075000 0.000000
0.225000 -0.050000 0.000000
0.225000 -0.025000 0.000000
0.225000 0.000000 0.000000
0.330841 0.085754 0.000000
0.894676 0.049130 0.000000
0.628610 0.100831 0.000000
0.208107 0.103021 0.000000
0.089785 0.170740 0.000000
0.072316 0.281877 0.000000
0.509512 0.087276 0.000000
0.957873 0.092510 0.000000
0.670281 0.087272 0.000000
0.138962 0.157452 0.000000
0.729120 0.104642 0.000000
0.023959 0.319166 0.000000
0.378643 0.024449 0.000000
0.462304 0.077146 0.000000
0.079808 0.125379 0.000000
0.326670 0.153785 0.000000
0.561706 0.049423 0.000000
0.061168 0.069457 0.000000
0.310275 0.115909 0.000000
0.357939 0.062808 0.000000
0.250000 -0.075000 0.000000
0.250000 -0.050000 0.000000
0.250000 -0.025000 0.000000
0.250000 0.000000 0.000000
0.791410 0.053920 0.000000
0.443743 0.119095 0.000000
0.356754 0.126529 0.000000
0.390622 0.098549 0.000000
0.316123 0.043480 0.000000
0.456646 0.103819 0.000000
0.207433 0.123307 0.000000
0.290367 0.097651 0.000000
0.303685 0.131985 0.000000
0.591841 0.091461 0.000000
0.303523 0.149778 0.000000
0.033728 0.270701 0.000000
0.120450 0.121574 0.000000
0.591072 0.023051 0.000000
0.438221 0.062529 0.000000
0.376705 0.074089 0.000000
0.409806 0.095844 0.000000
0.814847 0.055820 0.000000
0.039457 0.105858 0.000000
0.616097 0.077017 0.000000
0.275000 -0.075000 0.000000
0.275000 -0.050000 0.000000
0.275000 -0.025000 0.000000
0.275000 0.000000 0.000000
0.300000 -0.075000 0.000000
0.300000 -0.050000 0.000000
0.300000 -0.025000 0.000000
0.300000 0.000000 0.000000
0.325000 -0.075000 0.000000
0.325000 -0.050000 0.000000
0.325000 -0.025000 0.000000
0.325000 0.000000 0.000000
0.350000 -0.075000 0.000000
0.350000 -0.050000 0.000000
0.350000 -0.025000 0.000000
0.350000 0.000000 0.000000
0.375000 -0.075000 0.000000
0.375000 -0.050000 0.000000
0.375000 -0.025000 0.000000
0.375000 0.000000 0.000000
0.400000 -0.075000 0.000000
0.400000 -0.050000 0.000000
0.400000 -0.025000 0.000000
0.400000 0.000000 0.000000
0.425000 -0.075000 0.000000
0.425000 -0.050000 0.000000
0.425000 -0.025000 0.000000
0.425000 0.000000 0.000000
0.450000 -0.075000 0.000000
0.450000 -0.050000 0.000000
0.450000 -0.025000 0.000000
0.450000 0.000000 0.000000
0.475000 -0.075000 0.000000
0.475000 -0.050000 0.000000
0.475000 -0.025000 0.000000
0.475000 0.000000 0.000000
0.500000 -0.075000 0.000000
0.500000 -0.050000 0.000000
0.500000 -0.025000 0.000000
0.500000 0.000000 0.000000
0.525000 -0.075000 0.000000
0.525000 -0.050000 0.000000
0.525000 -0.025000 0.000000
0.525000 0.000000 0.000000
0.550000 -0.075000 0.000000
0.550000 -0.050000 0.000000
0.550000 -0.025000 0.000000
0.550000 0.000000 0.000000
0.575000 -0.075000 0.000000
0.575000 -0.050000 0.000000
0.575000 -0.025000 0.000000
0.575000 0.000000 0.000000
0.600000 -0.075000 0.000000
0.600000 -0.050000 0.000000
0.600000 -0.025000 0.000000
0.600000 0.000000 0.000000
0.625000 -0.075000 0.000000
0.625000 -0.050000 0.000000
0.625000 -0.025000 0.000000
0.625000 0.000000 0.000000
0.650000 -0.075000 0.000000
0.650000 -0.050000 0.000000
0.650000 -0.025000 0.000000
0.650000 0.000000 0.000000
0.675000 -0.075000 0.000000
0.675000 -0.050000 0.000000
0.675000 -0.025000 0.000000
0.675000 0.000000 0.000000
0.700000 -0.075000 0.000000
0.700000 -0.050000 0.000000
0.700000 -0.025000 0.000000
0.700000 0.000000 0.000000
0.725000 -0.075000 0.000000
0.725000 -0.050000 0.000000
0.725000 -0.025000 0.000000
0.725000 0.000000 0.000000
0.750000 -0.075000 0.000000
0.750000 -0.050000 0.000000
0.750000 -0.025000 0.000000
0.750000 0.000000 0.000000
0.775000 -0.075000 0.000000
0.775000 -0.050000 0.000000
0.775000 -0.025000 0.000000
0.775000 0.000000 0.000000
0.800000 -0.075000 0.000000
0.800000 -0.050000 0.000000
0.800000 -0.025000 0.000000
0.800000 0.000000 0.000000
0.825000 -0.075000 0.000000
0.825000 -0.050000 0.000000
0.825000 -0.025000 0.000000
0.825000 0.000000 0.000000
0.850000 -0.075000 0.000000
0.850000 -0.050000 0.000000
0.850000 -0.025000 0.000000
0.850000 0.000000 0.000000
0.875000 -0.075000 0.000000
0.875000 -0.050000 0.000000
0.875000 -0.025000 0.000000
0.875000 0.000000 0.000000
0.900000 -0.075000 0.000000
0.900000 -0.050000 0.000000
0.900000 -0.025000 0.000000
0.900000 0.000000 0.000000
0.925000 -0.075000 0.000000
0.925000 -0.050000 0.000000
0.925000 -0.025000 0.000000
0.925000 0.000000 0.000000
0.950000 -0.075000 0.000000
0.950000 -0.050000 0.000000
0.950000 -0.025000 0.000000
0.950000 0.000000 0.000000
0.975000 -0.075000 0.000000
0.975000 -0.050000 0.000000
0.975000 -0.025000 0.000000
0.975000 0.000000 0.000000
1.000000 -0.075000 0.000000
1.000000 -0.050000 0.000000
1.000000 -0.025000 0.000000
1.000000 0.000000 0.000000
1.025000 -0.075000 0.000000
1.025000 -0.050000 0.000000
1.025000 -0.025000 0.000000
1.025000 0.000000 0.000000
1.025000 0.025000 0.000000
1.025000 0.050000 0.000000
1.025000 0.075000 0.000000
1.025000 0.100000 0.000000
1.025000 0.125000 0.000000
1.025000 0.150000 0.000000
1.025000 0.175000 0.000000
1.025000 0.200000 0.000000
1.025000 0.225000 0.000000
1.025000 0.250000 0.000000
1.025000 0.275000 0.000000
1.025000 0.300000 0.000000
1.025000 0.325000 0.000000
1.025000 0.350000 0.000000
1.025000 0.375000 0.000000
1.025000 0.400000 0.000000
1.025000 0.425000 0.000000
1.025000 0.450000 0.000000
1.025000 0.475000 0.000000
1.025000 0.500000 0.000000
1.025000 0.525000 0.000000
1.025000 0.550000 0.000000
1.025000 0.575000 0.000000
1.025000 0.600000 0.000000
1.050000 -0.075000 0.000000
1.050000 -0.050000 0.000000
1.050000 -0.025000 0.000000
1.050000 0.000000 0.000000
1.050000 0.025000 0.000000
1.050000 0.050000 0.000000
1.050000 0.075000 0.000000
1.050000 0.100000 0.000000
1.050000 0.125000 0.000000
1.050000 0.150000 0.000000
1.050000 0.175000 0.000000
1.050000 0.200000 0.000000
1.050000 0.225000 0.000000
1.050000 0.250000 0.000000
1.050000 0.275000 0.000000
1.050000 0.300000 0.000000
1.050000 0.325000 0.000000
1.050000 0.350000 0.000000
1.050000 0.375000 0.000000
1.050000 0.400000 0.000000
1.050000 0.425000 0.000000
1.050000 0.450000 0.000000
1.050000 0.475000 0.000000
1.050000 0.500000 0.000000
1.050000 0.525000 0.000000
1.050000 0.550000 0.000000
1.050000 0.575000 0.000000
1.050000 0.600000 0.000000
1.075000 -0.075000 0.000000
1.075000 -0.050000 0.000000
1.075000 -0.025000 0.000000
1.075000 0.000000 0.000000
1.075000 0.025000 0.000000
1.075000 0.050000 0.000000
1.075000 0.075000 0.000000
1.075000 0.100000 0.000000
1.075000 0.125000 0.000000
1.075000 0.150000 0.000000
1.075000 0.175000 0.000000
1.075000 0.200000 0.000000
1.075000 0.225000 0.000000
1.075000 0.250000 0.000000
1.075000 0.275000 0.000000
1.075000 0.300000 0.000000
1.075000 0.325000 0.000000
1.075000 0.350000 0.000000
1.075000 0.375000 0.000000
1.075000 0.400000 0.000000
1.075000 0.425000 0.000000
1.075000 0.450000 0.000000
1.075000 0.475000 0.000000
1.075000 0.500000 0.000000
1.075000 0.525000 0.000000
1.075000 0.550000 0.000000
1.075000 0.575000 0.000000
1.075000 0.600000 0.000000
1.100000 -0.075000 0.000000
1.100000 -0.050000 0.000000
1.100000 -0.025000 0.000000
1.100000 0.000000 0.000000
1.100000 0.025000 0.000000
1.100000 0.050000 0.000000
1.100000 0.075000 0.000000
1.100000 0.100000 0.000000
1.100000 0.125000 0.000000
1.100000 0.150000 0.000000
1.100000 0.175000 0.000000
1.100000 0.200000 0.000000
1.100000 0.225000 0.000000
1.100000 0.250000 0.000000
1.100000 0.275000 0.000000
1.100000 0.300000 0.000000
1.100000 0.325000 0.000000
1.100000 0.350000 0.000000
1.100000 0.375000 0.000000
1.100000 0.400000 0.000000
1.100000 0.425000 0.000000
1.100000 0.450000 0.000000
1.100000 0.475000 0.000000
1.100000 0.500000 0.000000
1.100000 0.525000 0.000000
1.100000 0.550000 0.000000
1.100000 0.575000 0.000000
1.100000 0.600000 0.000000
</DataArray>
</Points>
<PointData>
<DataArray NumberOfComponents='1' type='Int32' Name='ParticleType' format='ascii'>
3
3
3
3
3
3
3
3
3
3
3
3
3
3
3
3
3
3
3
3
3
3
3
3
3
3
2
2
3
3
3
3
3
3
3
3
3
3
3
3
3
3
3
3
3
3
3
3
3
3
3
3
3
3
2
2
3
3
2
2
2
2
2
2
2
2
2
2
2
2
2
2
2
2
2
2
2
2
2
2
2
2
2
2
3
3
2
2
2
2
2
2
2
2
2
2
2
2
2
2
2
2
2
2
2
2
2
2
2
2
2
2
3
3
2
2
0
0
0
0
0
0
0
0
0
0
0
0
0
0
0
0
0
0
0
0
3
3
2
2
0
0
0
0
0
0
0
0
0
0
0
0
0
0
0
0
0
0
0
0
3
3
2
2
0
0
0
0
0
0
0
0
0
0
0
0
0
0
0
0
0
0
0
0
3
3
2
2
0
0
0
0
0
0
0
0
0
0
0
0
0
0
0
0
0
0
0
0
3
3
2
2
0
0
0
0
0
0
0
0
0
0
0
0
0
0
0
0
0
0
0
0
3
3
2
2
0
0
0
0
0
0
0
0
0
0
0
0
0
0
0
0
0
0
0
0
3
3
2
2
0
0
0
0
0
0
0
0
0
0
0
0
0
0
0
0
0
0
0
0
3
3
2
2
0
0
0
0
0
0
0
0
0
0
0
0
0
0
0
0
0
0
0
0
3
3
2
2
0
0
0
0
0
0
0
0
0
0
0
0
0
0
0
0
0
0
0
0
3
3
2
2
0
0
0
0
0
0
0
0
0
0
0
0
0
0
0
0
0
0
0
0
3
3
2
2
3
3
2
2
3
3
2
2
3
3
2
2
3
3
2
2
3
3
2
2
3
3
2
2
3
3
2
2
3
3
2
2
3
3
2
2
3
3
2
2
3
3
2
2
3
3
2
2
3
3
2
2
3
3
2
2
3
3
2
2
3
3
2
2
3
3
2
2
3
3
2
2
3
3
2
2
3
3
2
2
3
3
2
2
3
3
2
2
3
3
2
2
3
3
2
2
3
3
2
2
3
3
2
2
3
3
2
2
3
3
2
2
3
3
2
2
3
3
2
2
2
2
2
2
2
2
2
2
2
2
2
2
2
2
2
2
2
2
2
2
2
2
2
2
3
3
2
2
2
2
2
2
2
2
2
2
2
2
2
2
2
2
2
2
2
2
2
2
2
2
2
2
3
3
3
3
3
3
3
3
3
3
3
3
3
3
3
3
3
3
3
3
3
3
3
3
3
3
2
2
3
3
3
3
3
3
3
3
3
3
3
3
3
3
3
3
3
3
3
3
3
3
3
3
3
3
2
2
</DataArray>
<DataArray NumberOfComponents='1' type='Float32' Name='Velocity' format='ascii'>
0.000000
0.000000
0.000000
0.000000
0.000000
0.000000
0.000000
0.000000
0.000000
0.000000
0.000000
0.000000
0.000000
0.000000
0.000000
0.000000
0.000000
0.000000
0.000000
0.000000
0.000000
0.000000
0.000000
0.000000
0.000000
0.000000
0.000000
0.000000
0.000000
0.000000
0.000000
0.000000
0.000000
0.000000
0.000000
0.000000
0.000000
0.000000
0.000000
0.000000
0.000000
0.000000
0.000000
0.000000
0.000000
0.000000
0.000000
0.000000
0.000000
0.000000
0.000000
0.000000
0.000000
0.000000
0.000000
0.000000
0.000000
0.000000
0.000000
0.000000
0.000000
0.000000
0.000000
0.000000
0.000000
0.000000
0.000000
0.000000
0.000000
0.000000
0.000000
0.000000
0.000000
0.000000
0.000000
0.000000
0.000000
0.000000
0.000000
0.000000
0.000000
0.000000
0.000000
0.000000
0.000000
0.000000
0.000000
0.000000
0.000000
0.000000
0.000000
0.000000
0.000000
0.000000
0.000000
0.000000
0.000000
0.000000
0.000000
0.000000
0.000000
0.000000
0.000000
0.000000
0.000000
0.000000
0.000000
0.000000
0.000000
0.000000
0.000000
0.000000
0.000000
0.000000
0.000000
0.000000
0.111681
0.456059
0.332239
0.150336
0.113008
0.452481
0.211752
0.262249
0.323196
0.433843
0.204597
0.468176
0.488287
0.336264
0.186082
0.140907
0.303752
0.314778
0.218802
0.381255
0.000000
0.000000
0.000000
0.000000
1.128901
1.301594
1.533278
0.149422
0.225090
0.256225
0.428682
0.400053
0.930430
0.368823
0.476054
0.554197
1.320017
0.855258
0.331922
0.175604
0.319346
0.626687
0.968910
0.423854
0.000000
0.000000
0.000000
0.000000
0.773767
0.619092
0.319918
0.472076
1.166507
0.128822
0.504663
0.269404
1.010334
0.590497
0.635954
0.615122
0.426103
0.399607
0.735488
0.662484
0.480649
0.344130
0.147150
0.180383
0.000000
0.000000
0.000000
0.000000
0.518524
0.804728
0.638507
0.161215
0.574850
0.305279
0.558801
0.199541
0.502670
0.054805
0.341140
0.879858
0.715039
0.602652
1.162568
1.029258
0.599530
0.925312
0.598766
0.410610
0.000000
0.000000
0.000000
0.000000
0.142874
0.783863
0.172790
0.206306
0.999823
0.505742
0.774116
1.145124
0.462306
0.277040
0.570391
0.683461
0.735250
0.494113
0.664649
0.995442
1.038557
0.308461
0.687426
0.341284
0.000000
0.000000
0.000000
0.000000
0.562246
0.042701
0.465074
0.739504
0.358380
0.300855
0.606496
0.439033
0.460669
1.506188
0.450355
0.441895
0.203054
0.144625
0.249454
0.442974
0.131805
0.286839
0.328964
0.864746
0.000000
0.000000
0.000000
0.000000
0.100577
0.647090
0.587851
0.828076
0.176405
1.127037
0.205750
0.111509
0.404116
0.105492
0.732038
0.180287
1.155980
0.256243
0.115525
0.233262
0.038304
0.433386
0.940935
1.072203
0.000000
0.000000
0.000000
0.000000
0.800719
0.472907
0.542663
0.553021
0.665809
0.976928
0.427882
0.308246
0.670487
0.287933
0.530804
0.544258
0.298722
0.954744
0.889502
0.904775
0.660526
0.849388
0.595568
0.396787
0.000000
0.000000
0.000000
0.000000
0.818444
0.423835
0.345883
0.867137
1.301960
0.266788
1.041703
0.577426
0.689338
0.981107
0.587751
1.435779
0.497086
0.815945
0.271001
1.422816
0.651920
0.516925
0.682457
0.687729
0.000000
0.000000
0.000000
0.000000
0.505487
0.749604
0.868293
0.446284
0.868334
0.986797
0.927753
1.089425
0.409679
0.835494
0.642896
0.766648
0.475772
0.483449
0.494411
0.592228
0.716807
0.376343
0.992944
0.926316
0.000000
0.000000
0.000000
0.000000
0.000000
0.000000
0.000000
0.000000
0.000000
0.000000
0.000000
0.000000
0.000000
0.000000
0.000000
0.000000
0.000000
0.000000
0.000000
0.000000
0.000000
0.000000
0.000000
0.000000
0.000000
0.000000
0.000000
0.000000
0.000000
0.000000
0.000000
0.000000
0.000000
0.000000
0.000000
0.000000
0.000000
0.000000
0.000000
0.000000
0.000000
0.000000
0.000000
0.000000
0.000000
0.000000
0.000000
0.000000
0.000000
0.000000
0.000000
0.000000
0.000000
0.000000
0.000000
0.000000
0.000000
0.000000
0.000000
0.000000
0.000000
0.000000
0.000000
0.000000
0.000000
0.000000
0.000000
0.000000
0.000000
0.000000
0.000000
0.000000
0.000000
0.000000
0.000000
0.000000
0.000000
0.000000
0.000000
0.000000
0.000000
0.000000
0.000000
0.000000
0.000000
0.000000
0.000000
0.000000
0.000000
0.000000
0.000000
0.000000
0.000000
0.000000
0.000000
0.000000
0.000000
0.000000
0.000000
0.000000
0.000000
0.000000
0.000000
0.000000
0.000000
0.000000
0.000000
0.000000
0.000000
0.000000
0.000000
0.000000
0.000000
0.000000
0.000000
0.000000
0.000000
0.000000
0.000000
0.000000
0.000000
0.000000
0.000000
0.000000
0.000000
0.000000
0.000000
0.000000
0.000000
0.000000
0.000000
0.000000
0.000000
0.000000
0.000000
0.000000
0.000000
0.000000
0.000000
0.000000
0.000000
0.000000
0.000000
0.000000
0.000000
0.000000
0.000000
0.000000
0.000000
0.000000
0.000000
0.000000
0.000000
0.000000
0.000000
0.000000
0.000000
0.000000
0.000000
0.000000
0.000000
0.000000
0.000000
0.000000
0.000000
0.000000
0.000000
0.000000
0.000000
0.000000
0.000000
0.000000
0.000000
0.000000
0.000000
0.000000
0.000000
0.000000
0.000000
0.000000
0.000000
0.000000
0.000000
0.000000
0.000000
0.000000
0.000000
0.000000
0.000000
0.000000
0.000000
0.000000
0.000000
0.000000
0.000000
0.000000
0.000000
0.000000
0.000000
0.000000
0.000000
0.000000
0.000000
0.000000
0.000000
0.000000
0.000000
0.000000
0.000000
0.000000
0.000000
0.000000
0.000000
0.000000
0.000000
0.000000
0.000000
0.000000
0.000000
0.000000
0.000000
0.000000
0.000000
0.000000
0.000000
0.000000
0.000000
0.000000
0.000000
0.000000
0.000000
0.000000
</DataArray>
<DataArray NumberOfComponents='1' type='Float32' Name='pressure' format='ascii'>
0.000000
0.000000
0.000000
0.000000
0.000000
0.000000
0.000000
0.000000
0.000000
0.000000
0.000000
0.000000
0.000000
0.000000
0.000000
0.000000
0.000000
0.000000
0.000000
0.000000
0.000000
0.000000
0.000000
0.000000
0.000000
0.000000
0.000000
0.000000
0.000000
0.000000
0.000000
0.000000
0.000000
0.000000
0.000000
0.000000
0.000000
0.000000
0.000000
0.000000
0.000000
0.000000
0.000000
0.000000
0.000000
0.000000
0.000000
0.000000
0.000000
0.000000
0.000000
0.000000
0.000000
0.000000
0.000000
0.000000
0.000000
0.000000
340.923096
474.743835
1356.055908
0.000000
0.000000
406.115570
1972.005371
1561.541992
1310.272949
0.000000
0.000000
0.000000
0.000000
0.000000
0.000000
0.000000
0.000000
0.000000
0.000000
0.000000
0.000000
0.000000
0.000000
0.000000
0.000000
0.000000
0.000000
0.000000
313.800415
11.255325
884.960083
0.000000
0.000000
1137.504639
0.000000
0.000000
0.000000
0.000000
0.000000
0.000000
0.000000
0.000000
0.000000
0.000000
0.000000
0.000000
0.000000
0.000000
0.000000
0.000000
0.000000
0.000000
0.000000
0.000000
0.000000
0.000000
0.000000
0.000000
2268.180420
1975.640625
623.796875
2118.807373
2637.527100
3563.896484
3916.356445
1182.799072
1456.312012
0.000000
2504.906982
901.551697
1786.729980
0.000000
0.000000
2441.803467
0.000000
1025.026245
0.000000
2025.493408
0.000000
0.000000
1340.775024
1779.724854
0.000000
0.000000
0.000000
1315.053711
0.000000
0.000000
0.000000
0.000000
0.000000
0.000000
2288.678467
1418.103638
0.000000
1103.622314
0.000000
2060.407227
1623.096436
459.672852
0.000000
2394.548340
0.000000
0.000000
2796.480957
3316.253906
0.000000
0.000000
551.627380
0.000000
0.000000
1134.452637
925.425476
0.000000
0.000000
1549.437378
2122.083252
1025.924805
1578.570679
2330.453369
2934.204346
2271.096436
0.000000
1661.493408
1340.393555
0.000000
0.000000
0.000000
3316.956055
3494.650879
1715.651733
0.000000
1955.031982
506.372223
1711.958008
1233.787231
848.079834
2220.575928
1630.640625
0.000000
1407.577271
0.000000
917.948853
1447.275879
0.000000
3220.483398
2067.257324
0.000000
1527.420898
3981.078369
0.000000
0.000000
2145.293457
1453.763794
0.000000
0.000000
0.000000
1660.317017
0.000000
2258.126953
0.000000
0.000000
0.000000
0.000000
0.000000
871.961060
0.000000
858.737488
281.006470
0.000000
0.000000
820.141785
1332.990967
0.000000
0.000000
0.000000
999.535034
657.689575
1592.633911
481.616211
0.000000
3142.379639
806.328247
609.583984
0.000000
1146.293823
197.567017
0.000000
0.000000
314.089233
0.000000
0.000000
941.993042
1609.313843
1143.080444
1334.221680
764.304382
580.095398
0.000000
0.000000
2251.451416
1523.438965
0.000000
0.000000
0.000000
0.000000
258.072083
0.000000
222.620239
2408.361084
2232.322510
0.000000
0.000000
0.000000
0.000000
657.834473
0.000000
1359.708008
0.000000
0.000000
0.000000
0.000000
0.000000
0.000000
889.616699
0.000000
0.000000
0.000000
1662.630249
0.000000
1007.830261
1547.673950
2004.948853
0.000000
0.000000
0.000000
0.000000
285.520721
798.809509
590.914062
0.000000
0.000000
0.000000
0.000000
0.000000
0.000000
0.000000
0.000000
2611.023438
2217.111572
0.000000
0.000000
0.000000
0.000000
0.000000
0.000000
0.000000
252.090683
1053.279663
0.000000
0.000000
0.000000
2160.544189
596.419373
141.764587
0.000000
1285.268555
0.000000
0.000000
0.000000
0.000000
0.000000
3578.770508
3938.690430
0.000000
574.644409
607.345703
0.000000
3589.758301
0.000000
0.000000
0.000000
0.000000
0.000000
0.000000
0.000000
2554.355713
2538.297363
1956.497314
0.000000
29.877583
77.754761
3093.602539
897.434265
0.000000
0.000000
2841.859863
1767.003418
0.000000
0.000000
3865.338867
3704.188721
0.000000
0.000000
4041.314453
3640.035156
0.000000
0.000000
1533.031982
0.000000
0.000000
0.000000
2047.853516
2174.020508
0.000000
0.000000
1778.656006
2714.179932
0.000000
0.000000
1913.892944
1907.618042
0.000000
0.000000
1828.612427
2430.418701
0.000000
0.000000
2084.196533
1388.504395
0.000000
0.000000
2402.109863
2074.993652
0.000000
0.000000
2658.698486
2604.386963
0.000000
0.000000
1653.082153
1584.596313
0.000000
0.000000
2480.750732
2527.244385
0.000000
0.000000
2368.205566
1718.345337
0.000000
0.000000
1304.107178
853.977905
0.000000
0.000000
3048.395996
2879.488770
0.000000
0.000000
2131.014160
0.000000
0.000000
0.000000
2413.779297
2025.916992
0.000000
0.000000
1087.962402
790.408325
0.000000
0.000000
1756.589233
1289.747070
0.000000
0.000000
730.871338
862.841980
0.000000
0.000000
66.028099
932.804871
0.000000
0.000000
0.000000
0.000000
0.000000
0.000000
0.000000
0.000000
0.000000
0.000000
0.000000
0.000000
0.000000
0.000000
106.957115
1619.195190
0.000000
0.000000
522.024353
0.000000
0.000000
0.000000
371.574097
0.000000
0.000000
0.000000
1223.796265
934.887573
0.000000
0.000000
2230.300781
2282.316162
0.000000
0.000000
946.246155
193.390945
0.000000
331.761536
0.000000
0.000000
0.000000
0.000000
0.000000
0.000000
0.000000
0.000000
0.000000
0.000000
0.000000
0.000000
0.000000
0.000000
0.000000
0.000000
0.000000
0.000000
0.000000
0.000000
0.000000
0.000000
0.000000
0.000000
662.908813
400.326538
0.000000
824.771912
0.000000
0.000000
0.000000
0.000000
0.000000
0.000000
0.000000
0.000000
0.000000
0.000000
0.000000
0.000000
0.000000
0.000000
0.000000
0.000000
0.000000
0.000000
0.000000
0.000000
0.000000
0.000000
0.000000
0.000000
0.000000
0.000000
0.000000
0.000000
0.000000
0.000000
0.000000
0.000000
0.000000
0.000000
0.000000
0.000000
0.000000
0.000000
0.000000
0.000000
0.000000
0.000000
0.000000
0.000000
0.000000
0.000000
0.000000
0.000000
0.000000
0.000000
0.000000
0.000000
0.000000
0.000000
0.000000
0.000000
0.000000
0.000000
0.000000
0.000000
0.000000
0.000000
0.000000
0.000000
0.000000
0.000000
0.000000
0.000000
0.000000
0.000000
0.000000
0.000000
0.000000
0.000000
0.000000
0.000000
0.000000
0.000000
</DataArray>
</PointData>
<Cells>
<DataArray type='Int32' Name='connectivity' format='ascii'>
0
1
2
3
4
5
6
7
8
9
10
11
12
13
14
15
16
17
18
19
20
21
22
23
24
25
26
27
28
29
30
31
32
33
34
35
36
37
38
39
40
41
42
43
44
45
46
47
48
49
50
51
52
53
54
55
56
57
58
59
60
61
62
63
64
65
66
67
68
69
70
71
72
73
74
75
76
77
78
79
80
81
82
83
84
85
86
87
88
89
90
91
92
93
94
95
96
97
98
99
100
101
102
103
104
105
106
107
108
109
110
111
112
113
114
115
116
117
118
119
120
121
122
123
124
125
126
127
128
129
130
131
132
133
134
135
136
137
138
139
140
141
142
143
144
145
146
147
148
149
150
151
152
153
154
155
156
157
158
159
160
161
162
163
164
165
166
167
168
169
170
171
172
173
174
175
176
177
178
179
180
181
182
183
184
185
186
187
188
189
190
191
192
193
194
195
196
197
198
199
200
201
202
203
204
205
206
207
208
209
210
211
212
213
214
215
216
217
218
219
220
221
222
223
224
225
226
227
228
229
230
231
232
233
234
235
236
237
238
239
240
241
242
243
244
245
246
247
248
249
250
251
252
253
254
255
256
257
258
259
260
261
262
263
264
265
266
267
268
269
270
271
272
273
274
275
276
277
278
279
280
281
282
283
284
285
286
287
288
289
290
291
292
293
294
295
296
297
298
299
300
301
302
303
304
305
306
307
308
309
310
311
312
313
314