<?xml version='1.0' encoding='UTF-8'?>
<VTKFile xmlns='VTK' byte_order='LittleEndian' version='0.1' type='UnstructuredGrid'>
<UnstructuredGrid>
<Piece NumberOfCells='584' NumberOfPoints='584'>
<Points>
<DataArray NumberOfComponents='3' type='Float32' Name='Position' format='ascii'>
-0.075000 -0.075000 0.000000
-0.075000 -0.050000 0.000000
-0.075000 -0.025000 0.000000
-0.075000 0.000000 0.000000
-0.075000 0.025000 0.000000
-0.075000 0.050000 0.000000
-0.075000 0.075000 0.000000
-0.075000 0.100000 0.000000
-0.075000 0.125000 0.000000
-0.075000 0.150000 0.000000
-0.075000 0.175000 0.000000
-0.075000 0.200000 0.000000
-0.075000 0.225000 0.000000
-0.075000 0.250000 0.000000
-0.075000 0.275000 0.000000
-0.075000 0.300000 0.000000
-0.075000 0.325000 0.000000
-0.075000 0.350000 0.000000
-0.075000 0.375000 0.000000
-0.075000 0.400000 0.000000
-0.075000 0.425000 0.000000
-0.075000 0.450000 0.000000
-0.075000 0.475000 0.000000
-0.075000 0.500000 0.000000
-0.075000 0.525000 0.000000
-0.075000 0.550000 0.000000
-0.075000 0.575000 0.000000
-0.075000 0.600000 0.000000
-0.050000 -0.075000 0.000000
-0.050000 -0.050000 0.000000
-0.050000 -0.025000 0.000000
-0.050000 0.000000 0.000000
-0.050000 0.025000 0.000000
-0.050000 0.050000 0.000000
-0.050000 0.075000 0.000000
-0.050000 0.100000 0.000000
-0.050000 0.125000 0.000000
-0.050000 0.150000 0.000000
-0.050000 0.175000 0.000000
-0.050000 0.200000 0.000000
-0.050000 0.225000 0.000000
-0.050000 0.250000 0.000000
-0.050000 0.275000 0.000000
-0.050000 0.300000 0.000000
-0.050000 0.325000 0.000000
-0.050000 0.350000 0.000000
-0.050000 0.375000 0.000000
-0.050000 0.400000 0.000000
-0.050000 0.425000 0.000000
-0.050000 0.450000 0.000000
-0.050000 0.475000 0.000000
-0.050000 0.500000 0.000000
-0.050000 0.525000 0.000000
-0.050000 0.550000 0.000000
-0.050000 0.575000 0.000000
-0.050000 0.600000 0.000000
-0.025000 -0.075000 0.000000
-0.025000 -0.050000 0.000000
-0.025000 -0.025000 0.000000
-0.025000 0.000000 0.000000
-0.025000 0.025000 0.000000
-0.025000 0.050000 0.000000
-0.025000 0.075000 0.000000
-0.025000 0.100000 0.000000
-0.025000 0.125000 0.000000
-0.025000 0.150000 0.000000
-0.025000 0.175000 0.000000
-0.025000 0.200000 0.000000
-0.025000 0.225000 0.000000
-0.025000 0.250000 0.000000
-0.025000 0.275000 0.000000
-0.025000 0.300000 0.000000
-0.025000 0.325000 0.000000
-0.025000 0.350000 0.000000
-0.025000 0.375000 0.000000
-0.025000 0.400000 0.000000
-0.025000 0.425000 0.000000
-0.025000 0.450000 0.000000
-0.025000 0.475000 0.000000
-0.025000 0.500000 0.000000
-0.025000 0.525000 0.000000
-0.025000 0.550000 0.000000
-0.025000 0.575000 0.000000
-0.025000 0.600000 0.000000
0.000000 -0.075000 0.000000
0.000000 -0.050000 0.000000
0.000000 -0.025000 0.000000
0.000000 0.000000 0.000000
0.000000 0.025000 0.000000
0.000000 0.050000 0.000000
0.000000 0.075000 0.000000
0.000000 0.100000 0.000000
0.000000 0.125000 0.000000
0.000000 0.150000 0.000000
0.000000 0.175000 0.000000
0.000000 0.200000 0.000000
0.000000 0.225000 0.000000
0.000000 0.250000 0.000000
0.000000 0.275000 0.000000
0.000000 0.300000 0.000000
0.000000 0.325000 0.000000
0.000000 0.350000 0.000000
0.000000 0.375000 0.000000
0.000000 0.400000 0.000000
0.000000 0.425000 0.000000
0.000000 0.450000 0.000000
0.000000 0.475000 0.000000
0.000000 0.500000 0.000000
0.000000 0.525000 0.000000
0.000000 0.550000 0.000000
0.000000 0.575000 0.000000
0.000000 0.600000 0.000000
0.025000 -0.075000 0.000000
0.025000 -0.050000 0.000000
0.025000 -0.025000 0.000000
0.025000 0.000000 0.000000
0.124592 0.041634 0.000000
0.171070 0.138623 0.000000
0.139139 0.025984 0.000000
0.170819 0.023237 0.000000
0.219812 0.048943 0.000000
0.107714 0.121602 0.000000
0.289619 0.027048 0.000000
0.190091 0.037212 0.000000
0.167868 0.066927 0.000000
0.048733 0.261190 0.000000
0.208686 0.022203 0.000000
0.051012 0.169354 0.000000
0.111519 0.020872 0.000000
0.083013 0.042575 0.000000
0.118455 0.151451 0.000000
0.057464 0.052701 0.000000
0.048788 0.193420 0.000000
0.074723 0.023504 0.000000
0.066475 0.205794 0.000000
0.103554 0.051893 0.000000
0.050000 -0.075000 0.000000
0.050000 -0.050000 0.000000
0.050000 -0.025000 0.000000
0.050000 0.000000 0.000000
0.126764 0.211969 0.000000
0.067186 0.138023 0.000000
0.052972 0.249176 0.000000
0.024221 0.024528 0.000000
0.020762 0.155372 0.000000
0.431150 0.051175 0.000000
0.155026 0.118623 0.000000
0.575168 0.043647 0.000000
0.122847 0.171698 0.000000
0.207728 0.175850 0.000000
0.090350 0.097237 0.000000
0.209279 0.113227 0.000000
0.015500 0.290186 0.000000
0.136004 0.186336 0.000000
0.071065 0.080936 0.000000
0.021078 0.068222 0.000000
0.180001 0.101518 0.000000
0.198021 0.091123 0.000000
0.076005 0.316786 0.000000
0.044694 0.074002 0.000000
0.075000 -0.075000 0.000000
0.075000 -0.050000 0.000000
0.075000 -0.025000 0.000000
0.075000 0.000000 0.000000
0.094752 0.160525 0.000000
0.157258 0.091560 0.000000
0.379094 0.034668 0.000000
0.316760 0.024389 0.000000
0.426869 0.108698 0.000000
0.658353 0.023694 0.000000
0.672003 0.041446 0.000000
0.046769 0.133607 0.000000
0.372418 0.116720 0.000000
0.645284 0.058540 0.000000
0.427062 0.023204 0.000000
0.090326 0.128707 0.000000
0.189839 0.061059 0.000000
0.193096 0.123146 0.000000
0.232182 0.082230 0.000000
0.048715 0.096407 0.000000
0.135762 0.104291 0.000000
0.033196 0.046327 0.000000
0.145731 0.066739 0.000000
0.126011 0.074504 0.000000
0.100000 -0.075000 0.000000
0.100000 -0.050000 0.000000
0.100000 -0.025000 0.000000
0.100000 0.000000 0.000000
0.464762 0.020899 0.000000
0.315343 0.145684 0.000000
0.485283 0.047811 0.000000
0.799410 0.022320 0.000000
0.213375 0.069041 0.000000
0.731536 0.021897 0.000000
0.624795 0.089850 0.000000
0.248872 0.043601 0.000000
0.688494 0.024402 0.000000
0.696749 0.052568 0.000000
0.447640 0.036175 0.000000
0.311777 0.127737 0.000000
0.536071 0.045236 0.000000
0.608113 0.022139 0.000000
0.090463 0.202084 0.000000
0.233486 0.027895 0.000000
0.526713 0.025170 0.000000
0.254020 0.067094 0.000000
0.333603 0.080452 0.000000
0.199468 0.151137 0.000000
0.125000 -0.075000 0.000000
0.125000 -0.050000 0.000000
0.125000 -0.025000 0.000000
0.125000 0.000000 0.000000
0.714669 0.076930 0.000000
0.685897 0.129502 0.000000
0.985117 0.063408 0.000000
0.827006 0.030389 0.000000
0.553622 0.064299 0.000000
0.579659 0.024754 0.000000
0.186992 0.169337 0.000000
0.481638 0.071187 0.000000
0.775209 0.080265 0.000000
0.749903 0.055745 0.000000
0.867295 0.045291 0.000000
0.516226 0.072396 0.000000
0.495080 0.023024 0.000000
0.471738 0.103858 0.000000
0.397892 0.024748 0.000000
0.443801 0.116785 0.000000
0.291444 0.140859 0.000000
0.111514 0.091692 0.000000
0.462596 0.079061 0.000000
0.033062 0.172685 0.000000
0.150000 -0.075000 0.000000
0.150000 -0.050000 0.000000
0.150000 -0.025000 0.000000
0.150000 0.000000 0.000000
0.222819 0.137329 0.000000
0.965459 0.031812 0.000000
0.750205 0.102538 0.000000
0.272536 0.054319 0.000000
0.882824 0.026682 0.000000
0.158778 0.042366 0.000000
0.921384 0.038843 0.000000
0.416433 0.074447 0.000000
0.940813 0.048955 0.000000
0.552970 0.096192 0.000000
0.894015 0.109505 0.000000
0.710492 0.031153 0.000000
0.831029 0.065376 0.000000
0.811988 0.064311 0.000000
0.773282 0.024647 0.000000
0.624248 0.048915 0.000000
0.635389 0.027113 0.000000
0.659522 0.070787 0.000000
0.678480 0.078840 0.000000
0.245549 0.116466 0.000000
0.175000 -0.075000 0.000000
0.175000 -0.050000 0.000000
0.175000 -0.025000 0.000000
0.175000 0.000000 0.000000
0.074421 0.162921 0.000000
0.624352 0.102929 0.000000
0.890888 0.062606 0.000000
0.825268 0.097691 0.000000
0.985607 0.021272 0.000000
0.141418 0.270527 0.000000
0.852756 0.022444 0.000000
0.323423 0.055231 0.000000
0.360333 0.024047 0.000000
0.904182 0.023258 0.000000
0.534458 0.076124 0.000000
0.748876 0.077818 0.000000
0.395416 0.096249 0.000000
0.940454 0.022572 0.000000
0.976582 0.052377 0.000000
0.404485 0.048193 0.000000
1.005567 0.036871 0.000000
0.482963 0.111720 0.000000
0.171295 0.167877 0.000000
0.409960 0.135464 0.000000
0.200000 -0.075000 0.000000
0.200000 -0.050000 0.000000
0.200000 -0.025000 0.000000
0.200000 0.000000 0.000000
0.351064 0.087222 0.000000
0.091010 0.070989 0.000000
0.283513 0.097152 0.000000
0.801077 0.044947 0.000000
0.349652 0.055444 0.000000
0.277585 0.121651 0.000000
0.600315 0.046904 0.000000
0.947168 0.075281 0.000000
0.396852 0.126289 0.000000
0.015882 0.211656 0.000000
0.790032 0.075331 0.000000
0.697282 0.084114 0.000000
0.050635 0.026763 0.000000
0.452633 0.060831 0.000000
0.584827 0.068475 0.000000
0.076657 0.260082 0.000000
0.721491 0.061553 0.000000
0.364497 0.131858 0.000000
0.878674 0.060521 0.000000
0.720812 0.119138 0.000000
0.225000 -0.075000 0.000000
0.225000 -0.050000 0.000000
0.225000 -0.025000 0.000000
0.225000 0.000000 0.000000
0.278063 0.077227 0.000000
0.841012 0.045711 0.000000
0.572277 0.080146 0.000000
0.149929 0.182710 0.000000
0.034443 0.246706 0.000000
0.093064 0.235182 0.000000
0.430627 0.089073 0.000000
0.927497 0.063676 0.000000
0.621130 0.074300 0.000000
0.089734 0.184064 0.000000
0.672421 0.099401 0.000000
0.087542 0.408146 0.000000
0.337043 0.027963 0.000000
0.394533 0.067860 0.000000
0.064101 0.111414 0.000000
0.227995 0.182486 0.000000
0.503140 0.043230 0.000000
0.024102 0.103540 0.000000
0.241078 0.098088 0.000000
0.295842 0.046373 0.000000
0.250000 -0.075000 0.000000
0.250000 -0.050000 0.000000
0.250000 -0.025000 0.000000
0.250000 0.000000 0.000000
0.752220 0.032119 0.000000
0.340202 0.126331 0.000000
0.262151 0.130257 0.000000
0.303573 0.093966 0.000000
0.264747 0.020931 0.000000
0.376433 0.092393 0.000000
0.150646 0.143630 0.000000
0.260637 0.182957 0.000000
0.254230 0.164978 0.000000
0.499956 0.091944 0.000000
0.239730 0.145753 0.000000
0.039769 0.291402 0.000000
0.130774 0.130951 0.000000
0.548547 0.026278 0.000000
0.366811 0.063240 0.000000
0.308815 0.073338 0.000000
0.328825 0.112256 0.000000
0.773902 0.052852 0.000000
0.027023 0.125370 0.000000
0.516034 0.099161 0.000000
0.275000 -0.075000 0.000000
0.275000 -0.050000 0.000000
0.275000 -0.025000 0.000000
0.275000 0.000000 0.000000
0.300000 -0.075000 0.000000
0.300000 -0.050000 0.000000
0.300000 -0.025000 0.000000
0.300000 0.000000 0.000000
0.325000 -0.075000 0.000000
0.325000 -0.050000 0.000000
0.325000 -0.025000 0.000000
0.325000 0.000000 0.000000
0.350000 -0.075000 0.000000
0.350000 -0.050000 0.000000
0.350000 -0.025000 0.000000
0.350000 0.000000 0.000000
0.375000 -0.075000 0.000000
0.375000 -0.050000 0.000000
0.375000 -0.025000 0.000000
0.375000 0.000000 0.000000
0.400000 -0.075000 0.000000
0.400000 -0.050000 0.000000
0.400000 -0.025000 0.000000
0.400000 0.000000 0.000000
0.425000 -0.075000 0.000000
0.425000 -0.050000 0.000000
0.425000 -0.025000 0.000000
0.425000 0.000000 0.000000
0.450000 -0.075000 0.000000
0.450000 -0.050000 0.000000
0.450000 -0.025000 0.000000
0.450000 0.000000 0.000000
0.475000 -0.075000 0.000000
0.475000 -0.050000 0.000000
0.475000 -0.025000 0.000000
0.475000 0.000000 0.000000
0.500000 -0.075000 0.000000
0.500000 -0.050000 0.000000
0.500000 -0.025000 0.000000
0.500000 0.000000 0.000000
0.525000 -0.075000 0.000000
0.525000 -0.050000 0.000000
0.525000 -0.025000 0.000000
0.525000 0.000000 0.000000
0.550000 -0.075000 0.000000
0.550000 -0.050000 0.000000
0.550000 -0.025000 0.000000
0.550000 0.000000 0.000000
0.575000 -0.075000 0.000000
0.575000 -0.050000 0.000000
0.575000 -0.025000 0.000000
0.575000 0.000000 0.000000
0.600000 -0.075000 0.000000
0.600000 -0.050000 0.000000
0.600000 -0.025000 0.000000
0.600000 0.000000 0.000000
0.625000 -0.075000 0.000000
0.625000 -0.050000 0.000000
0.625000 -0.025000 0.000000
0.625000 0.000000 0.000000
0.650000 -0.075000 0.000000
0.650000 -0.050000 0.000000
0.650000 -0.025000 0.000000
0.650000 0.000000 0.000000
0.675000 -0.075000 0.000000
0.675000 -0.050000 0.000000
0.675000 -0.025000 0.000000
0.675000 0.000000 0.000000
0.700000 -0.075000 0.000000
0.700000 -0.050000 0.000000
0.700000 -0.025000 0.000000
0.700000 0.000000 0.000000
0.725000 -0.075000 0.000000
0.725000 -0.050000 0.000000
0.725000 -0.025000 0.000000
0.725000 0.000000 0.000000
0.750000 -0.075000 0.000000
0.750000 -0.050000 0.000000
0.750000 -0.025000 0.000000
0.750000 0.000000 0.000000
0.775000 -0.075000 0.000000
0.775000 -0.050000 0.000000
0.775000 -0.025000 0.000000
0.775000 0.000000 0.000000
0.800000 -0.075000 0.000000
0.800000 -0.050000 0.000000
0.800000 -0.025000 0.000000
0.800000 0.000000 0.000000
0.825000 -0.075000 0.000000
0.825000 -0.050000 0.000000
0.825000 -0.025000 0.000000
0.825000 0.000000 0.000000
0.850000 -0.075000 0.000000
0.850000 -0.050000 0.000000
0.850000 -0.025000 0.000000
0.850000 0.000000 0.000000
0.875000 -0.075000 0.000000
0.875000 -0.050000 0.000000
0.875000 -0.025000 0.000000
0.875000 0.000000 0.000000
0.900000 -0.075000 0.000000
0.900000 -0.050000 0.000000
0.900000 -0.025000 0.000000
0.900000 0.000000 0.000000
0.925000 -0.075000 0.000000
0.925000 -0.050000 0.000000
0.925000 -0.025000 0.000000
0.925000 0.000000 0.000000
0.950000 -0.075000 0.000000
0.950000 -0.050000 0.000000
0.950000 -0.025000 0.000000
0.950000 0.000000 0.000000
0.975000 -0.075000 0.000000
0.975000 -0.050000 0.000000
0.975000 -0.025000 0.000000
0.975000 0.000000 0.000000
1.000000 -0.075000 0.000000
1.000000 -0.050000 0.000000
1.000000 -0.025000 0.000000
1.000000 0.000000 0.000000
1.025000 -0.075000 0.000000
1.025000 -0.050000 0.000000
1.025000 -0.025000 0.000000
1.025000 0.000000 0.000000
1.025000 0.025000 0.000000
1.025000 0.050000 0.000000
1.025000 0.075000 0.000000
1.025000 0.100000 0.000000
1.025000 0.125000 0.000000
1.025000 0.150000 0.000000
1.025000 0.175000 0.000000
1.025000 0.200000 0.000000
1.025000 0.225000 0.000000
1.025000 0.250000 0.000000
1.025000 0.275000 0.000000
1.025000 0.300000 0.000000
1.025000 0.325000 0.000000
1.025000 0.350000 0.000000
1.025000 0.375000 0.000000
1.025000 0.400000 0.000000
1.025000 0.425000 0.000000
1.025000 0.450000 0.000000
1.025000 0.475000 0.000000
1.025000 0.500000 0.000000
1.025000 0.525000 0.000000
1.025000 0.550000 0.000000
1.025000 0.575000 0.000000
1.025000 0.600000 0.000000
1.050000 -0.075000 0.000000
1.050000 -0.050000 0.000000
1.050000 -0.025000 0.000000
1.050000 0.000000 0.000000
1.050000 0.025000 0.000000
1.050000 0.050000 0.000000
1.050000 0.075000 0.000000
1.050000 0.100000 0.000000
1.050000 0.125000 0.000000
1.050000 0.150000 0.000000
1.050000 0.175000 0.000000
1.050000 0.200000 0.000000
1.050000 0.225000 0.000000
1.050000 0.250000 0.000000
1.050000 0.275000 0.000000
1.050000 0.300000 0.000000
1.050000 0.325000 0.000000
1.050000 0.350000 0.000000
1.050000 0.375000 0.000000
1.050000 0.400000 0.000000
1.050000 0.425000 0.000000
1.050000 0.450000 0.000000
1.050000 0.475000 0.000000
1.050000 0.500000 0.000000
1.050000 0.525000 0.000000
1.050000 0.550000 0.000000
1.050000 0.575000 0.000000
1.050000 0.600000 0.000000
1.075000 -0.075000 0.000000
1.075000 -0.050000 0.000000
1.075000 -0.025000 0.000000
1.075000 0.000000 0.000000
1.075000 0.025000 0.000000
1.075000 0.050000 0.000000
1.075000 0.075000 0.000000
1.075000 0.100000 0.000000
1.075000 0.125000 0.000000
1.075000 0.150000 0.000000
1.075000 0.175000 0.000000
1.075000 0.200000 0.000000
1.075000 0.225000 0.000000
1.075000 0.250000 0.000000
1.075000 0.275000 0.000000
1.075000 0.300000 0.000000
1.075000 0.325000 0.000000
1.075000 0.350000 0.000000
1.075000 0.375000 0.000000
1.075000 0.400000 0.000000
1.075000 0.425000 0.000000
1.075000 0.450000 0.000000
1.075000 0.475000 0.000000
1.075000 0.500000 0.000000
1.075000 0.525000 0.000000
1.075000 0.550000 0.000000
1.075000 0.575000 0.000000
1.075000 0.600000 0.000000
1.100000 -0.075000 0.000000
1.100000 -0.050000 0.000000
1.100000 -0.025000 0.000000
1.100000 0.000000 0.000000
1.100000 0.025000 0.000000
1.100000 0.050000 0.000000
1.100000 0.075000 0.000000
1.100000 0.100000 0.000000
1.100000 0.125000 0.000000
1.100000 0.150000 0.000000
1.100000 0.175000 0.000000
1.100000 0.200000 0.000000
1.100000 0.225000 0.000000
1.100000 0.250000 0.000000
1.100000 0.275000 0.000000
1.100000 0.300000 0.000000
1.100000 0.325000 0.000000
1.100000 0.350000 0.000000
1.100000 0.375000 0.000000
1.100000 0.400000 0.000000
1.100000 0.425000 0.000000
1.100000 0.450000 0.000000
1.100000 0.475000 0.000000
1.100000 0.500000 0.000000
1.100000 0.525000 0.000000
1.100000 0.550000 0.000000
1.100000 0.575000 0.000000
1.100000 0.600000 0.000000
</DataArray>
</Points>
<PointData>
<DataArray NumberOfComponents='1' type='Int32' Name='ParticleType' format='ascii'>
3
3
3
3
3
3
3
3
3
3
3
3
3
3
3
3
3
3
3
3
3
3
3
3
3
3
2
2
3
3
3
3
3
3
3
3
3
3
3
3
3
3
3
3
3
3
3
3
3
3
3
3
3
3
2
2
3
3
2
2
2
2
2
2
2
2
2
2
2
2
2
2
2
2
2
2
2
2
2
2
2
2
2
2
3
3
2
2
2
2
2
2
2
2
2
2
2
2
2
2
2
2
2
2
2
2
2
2
2
2
2
2
3
3
2
2
0
0
0
0
0
0
0
0
0
0
0
0
0
0
0
0
0
0
0
0
3
3
2
2
0
0
0
0
0
0
0
0
0
0
0
0
0
0
0
0
0
0
0
0
3
3
2
2
0
0
0
0
0
0
0
0
0
0
0
0
0
0
0
0
0
0
0
0
3
3
2
2
0
0
0
0
0
0
0
0
0
0
0
0
0
0
0
0
0
0
0
0
3
3
2
2
0
0
0
0
0
0
0
0
0
0
0
0
0
0
0
0
0
0
0
0
3
3
2
2
0
0
0
0
0
0
0
0
0
0
0
0
0
0
0
0
0
0
0
0
3
3
2
2
0
0
0
0
0
0
0
0
0
0
0
0
0
0
0
0
0
0
0
0
3
3
2
2
0
0
0
0
0
0
0
0
0
0
0
0
0
0
0
0
0
0
0
0
3
3
2
2
0
0
0
0
0
0
0
0
0
0
0
0
0
0
0
0
0
0
0
0
3
3
2
2
0
0
0
0
0
0
0
0
0
0
0
0
0
0
0
0
0
0
0
0
3
3
2
2
3
3
2
2
3
3
2
2
3
3
2
2
3
3
2
2
3
3
2
2
3
3
2
2
3
3
2
2
3
3
2
2
3
3
2
2
3
3
2
2
3
3
2
2
3
3
2
2
3
3
2
2
3
3
2
2
3
3
2
2
3
3
2
2
3
3
2
2
3
3
2
2
3
3
2
2
3
3
2
2
3
3
2
2
3
3
2
2
3
3
2
2
3
3
2
2
3
3
2
2
3
3
2
2
3
3
2
2
3
3
2
2
3
3
2
2
3
3
2
2
2
2
2
2
2
2
2
2
2
2
2
2
2
2
2
2
2
2
2
2
2
2
2
2
3
3
2
2
2
2
2
2
2
2
2
2
2
2
2
2
2
2
2
2
2
2
2
2
2
2
2
2
3
3
3
3
3
3
3
3
3
3
3
3
3
3
3
3
3
3
3
3
3
3
3
3
3
3
2
2
3
3
3
3
3
3
3
3
3
3
3
3
3
3
3
3
3
3
3
3
3
3
3
3
3
3
2
2
</DataArray>
<DataArray NumberOfComponents='1' type='Float32' Name='Velocity' format='ascii'>
0.000000
0.000000
0.000000
0.000000
0.000000
0.000000
0.000000
0.000000
0.000000
0.000000
0.000000
0.000000
0.000000
0.000000
0.000000
0.000000
0.000000
0.000000
0.000000
0.000000
0.000000
0.000000
0.000000
0.000000
0.000000
0.000000
0.000000
0.000000
0.000000
0.000000
0.000000
0.000000
0.000000
0.000000
0.000000
0.000000
0.000000
0.000000
0.000000
0.000000
0.000000
0.000000
0.000000
0.000000
0.000000
0.000000
0.000000
0.000000
0.000000
0.000000
0.000000
0.000000
0.000000
0.000000
0.000000
0.000000
0.000000
0.000000
0.000000
0.000000
0.000000
0.000000
0.000000
0.000000
0.000000
0.000000
0.000000
0.000000
0.000000
0.000000
0.000000
0.000000
0.000000
0.000000
0.000000
0.000000
0.000000
0.000000
0.000000
0.000000
0.000000
0.000000
0.000000
0.000000
0.000000
0.000000
0.000000
0.000000
0.000000
0.000000
0.000000
0.000000
0.000000
0.000000
0.000000
0.000000
0.000000
0.000000
0.000000
0.000000
0.000000
0.000000
0.000000
0.000000
0.000000
0.000000
0.000000
0.000000
0.000000
0.000000
0.000000
0.000000
0.000000
0.000000
0.000000
0.000000
0.412212
0.348464
0.263769
0.181486
0.288903
0.450375
0.314361
0.138777
0.494268
0.287202
0.141017
0.222361
0.193342
0.465256
0.524187
0.396251
0.408712
0.557994
0.303900
0.172540
0.000000
0.000000
0.000000
0.000000
0.170266
0.322877
0.408560
0.167470
0.151072
0.011546
0.213005
0.281423
0.332458
0.411341
0.142569
0.535221
0.117629
0.373783
0.262638
0.200998
0.433139
0.143245
0.314609
0.269504
0.000000
0.000000
0.000000
0.000000
0.095421
0.135781
0.434681
0.218757
0.834152
0.182551
0.510261
0.253228
1.050075
0.591226
0.459560
0.368584
0.215167
0.497332
0.208330
0.362460
0.099165
0.397541
0.275947
0.119680
0.000000
0.000000
0.000000
0.000000
0.253794
1.181854
0.148686
0.424498
0.215460
0.497038
0.546703
0.129767
0.405584
0.436640
0.375542
0.542052
0.367797
0.220327
0.592099
0.360660
0.391757
0.291158
0.524889
0.930198
0.000000
0.000000
0.000000
0.000000
0.446965
1.171450
0.442947
0.201413
0.656483
0.410578
0.838691
0.618444
0.458590
0.542670
0.183246
0.886724
0.172308
0.639559
0.114856
1.161822
0.589136
0.276042
0.361352
0.437958
0.000000
0.000000
0.000000
0.000000
0.896427
0.120701
0.549332
0.284949
0.183182
0.463819
0.050332
0.342279
0.142069
1.441726
0.299559
0.434748
0.164666
0.432077
0.441112
0.270263
0.225423
0.416488
0.078346
0.514262
0.000000
0.000000
0.000000
0.000000
0.308208
0.633025
0.350477
0.526881
0.244902
0.317638
0.114350
0.243101
0.161028
0.097642
0.724923
0.515775
0.775870
0.161949
0.387713
0.137517
0.292184
0.352972
0.866277
0.577267
0.000000
0.000000
0.000000
0.000000
0.697415
0.420201
0.572070
0.148229
0.264242
0.720764
0.289018
0.090271
0.508901
0.427952
0.350956
0.437820
0.399028
0.328513
0.798830
0.440348
0.348852
0.305851
0.214390
0.131317
0.000000
0.000000
0.000000
0.000000
0.005475
0.416559
0.656840
1.108713
0.533882
0.993236
0.518404
0.353478
0.448687
0.439636
0.465318
0.553023
0.152859
0.454734
0.458695
0.770762
0.160916
0.170355
0.219852
0.123055
0.000000
0.000000
0.000000
0.000000
0.202829
0.602585
0.613896
0.505932
0.159103
0.713209
0.315844
0.689154
0.680570
0.657007
0.303193
0.412931
0.289724
0.331356
0.250522
0.421885
0.723311
0.380813
0.184466
0.753507
0.000000
0.000000
0.000000
0.000000
0.000000
0.000000
0.000000
0.000000
0.000000
0.000000
0.000000
0.000000
0.000000
0.000000
0.000000
0.000000
0.000000
0.000000
0.000000
0.000000
0.000000
0.000000
0.000000
0.000000
0.000000
0.000000
0.000000
0.000000
0.000000
0.000000
0.000000
0.000000
0.000000
0.000000
0.000000
0.000000
0.000000
0.000000
0.000000
0.000000
0.000000
0.000000
0.000000
0.000000
0.000000
0.000000
0.000000
0.000000
0.000000
0.000000
0.000000
0.000000
0.000000
0.000000
0.000000
0.000000
0.000000
0.000000
0.000000
0.000000
0.000000
0.000000
0.000000
0.000000
0.000000
0.000000
0.000000
0.000000
0.000000
0.000000
0.000000
0.000000
0.000000
0.000000
0.000000
0.000000
0.000000
0.000000
0.000000
0.000000
0.000000
0.000000
0.000000
0.000000
0.000000
0.000000
0.000000
0.000000
0.000000
0.000000
0.000000
0.000000
0.000000
0.000000
0.000000
0.000000
0.000000
0.000000
0.000000
0.000000
0.000000
0.000000
0.000000
0.000000
0.000000
0.000000
0.000000
0.000000
0.000000
0.000000
0.000000
0.000000
0.000000
0.000000
0.000000
0.000000
0.000000
0.000000
0.000000
0.000000
0.000000
0.000000
0.000000
0.000000
0.000000
0.000000
0.000000
0.000000
0.000000
0.000000
0.000000
0.000000
0.000000
0.000000
0.000000
0.000000
0.000000
0.000000
0.000000
0.000000
0.000000
0.000000
0.000000
0.000000
0.000000
0.000000
0.000000
0.000000
0.000000
0.000000
0.000000
0.000000
0.000000
0.000000
0.000000
0.000000
0.000000
0.000000
0.000000
0.000000
0.000000
0.000000
0.000000
0.000000
0.000000
0.000000
0.000000
0.000000
0.000000
0.000000
0.000000
0.000000
0.000000
0.000000
0.000000
0.000000
0.000000
0.000000
0.000000
0.000000
0.000000
0.000000
0.000000
0.000000
0.000000
0.000000
0.000000
0.000000
0.000000
0.000000
0.000000
0.000000
0.000000
0.000000
0.000000
0.000000
0.000000
0.000000
0.000000
0.000000
0.000000
0.000000
0.000000
0.000000
0.000000
0.000000
0.000000
0.000000
0.000000
0.000000
0.000000
0.000000
0.000000
0.000000
0.000000
0.000000
0.000000
0.000000
0.000000
0.000000
0.000000
0.000000
0.000000
0.000000
0.000000
0.000000
0.000000
0.000000
0.000000
0.000000
0.000000
0.000000
</DataArray>
<DataArray NumberOfComponents='1' type='Float32' Name='pressure' format='ascii'>
0.000000
0.000000
0.000000
0.000000
0.000000
0.000000
0.000000
0.000000
0.000000
0.000000
0.000000
0.000000
0.000000
0.000000
0.000000
0.000000
0.000000
0.000000
0.000000
0.000000
0.000000
0.000000
0.000000
0.000000
0.000000
0.000000
0.000000
0.000000
0.000000
0.000000
0.000000
0.000000
0.000000
0.000000
0.000000
0.000000
0.000000
0.000000
0.000000
0.000000
0.000000
0.000000
0.000000
0.000000
0.000000
0.000000
0.000000
0.000000
0.000000
0.000000
0.000000
0.000000
0.000000
0.000000
0.000000
0.000000
0.000000
0.000000
2953.993896
2863.897705
2873.172852
2472.210693
3185.006348
1955.577759
1108.744629
3288.151611
2210.023682
5035.348633
4758.703613
1289.351196
4665.944336
5209.379395
98.589363
0.000000
0.000000
0.000000
0.000000
0.000000
0.000000
0.000000
0.000000
0.000000
0.000000
0.000000
0.000000
0.000000
2929.307129
3293.701904
2497.762695
723.329163
2093.260742
504.010193
1186.363281
2984.878174
0.000000
118.741989
0.000000
0.000000
0.000000
1710.580078
0.000000
0.000000
0.000000
0.000000
0.000000
0.000000
0.000000
0.000000
0.000000
0.000000
0.000000
0.000000
0.000000
0.000000
2961.032227
3190.350586
2197.006104
272.056000
2271.147217
2000.581909
281.891296
1084.904419
702.114075
1830.967651
2116.631348
0.000000
2594.200684
1561.489624
2221.482422
1771.276733
0.000000
1975.241089
0.000000
2236.043213
0.000000
2416.205078
0.000000
0.000000
2191.236572
1796.177734
0.000000
1.338402
0.000000
3070.288330
365.916870
1957.307251
564.919495
637.825867
0.000000
0.000000
1826.960693
1151.490356
0.000000
0.000000
1147.656738
2055.160400
1352.777710
0.000000
0.000000
1462.152100
0.000000
0.000000
3370.353271
2917.683350
966.818054
218.903381
685.928223
366.696625
0.000000
200.258896
0.000000
1399.342285
0.000000
0.000000
0.000000
266.304626
1739.164307
1380.143066
0.000000
2604.786621
1108.077515
3396.616455
2168.837402
84.488136
0.000000
0.000000
3893.001221
2298.779053
1492.476074
0.000000
273.677917
0.000000
2619.938477
186.907837
675.239563
2014.375610
0.000000
0.000000
1885.979858
0.000000
0.000000
0.000000
0.000000
729.097656
1290.210571
0.000000
0.000000
0.000000
0.000000
0.000000
3606.507324
3172.388672
401.215973
0.000000
0.000000
1022.895264
803.782043
0.000000
640.951538
20.715014
0.000000
0.000000
770.550110
690.009521
771.143555
0.000000
239.112061
0.000000
0.000000
2456.467773
652.862366
613.358826
0.000000
0.000000
2022.977295
1531.638916
0.000000
1179.023682
0.000000
1110.277588
874.896790
1614.242554
654.114441
1107.646362
1111.575684
0.000000
0.000000
0.000000
0.000000
0.000000
381.123535
0.000000
0.000000
0.000000
1437.362427
389.417847
0.000000
0.000000
3167.237061
3053.917480
2336.442139
0.000000
0.000000
0.000000
3027.409180
0.000000
0.000000
0.000000
1086.406494
568.773193
329.584412
0.000000
0.000000
1774.364258
0.000000
141.511627
0.000000
0.000000
0.000000
0.000000
0.000000
0.000000
3166.493408
2920.629883
0.000000
2518.229248
0.000000
1796.677368
562.989136
730.463501
0.000000
0.000000
0.000000
0.000000
0.000000
0.000000
2888.067627
0.000000
0.000000
0.000000
0.000000
0.000000
0.000000
0.000000
0.000000
0.000000
2123.725342
780.658081
0.000000
0.000000
0.000000
0.000000
0.000000
0.000000
0.000000
0.000000
0.000000
0.000000
0.000000
0.000000
464.444702
384.503235
991.088013
0.000000
923.699463
0.000000
885.155884
0.000000
0.000000
0.000000
2380.350098
1098.958008
534.021912
0.000000
495.022491
0.000000
621.588562
0.000000
864.367859
0.000000
0.000000
727.811462
0.000000
0.000000
2223.013916
0.000000
0.000000
1149.455200
0.000000
699.842529
1030.973755
0.000000
0.000000
0.000000
2513.594238
1720.024536
0.000000
0.000000
545.937927
1070.547852
0.000000
0.000000
845.830322
1350.746704
0.000000
0.000000
584.264771
870.503174
0.000000
0.000000
171.387833
0.000000
0.000000
0.000000
930.007324
434.018555
0.000000
0.000000
2159.601807
1042.730103
0.000000
0.000000
2974.722412
2260.851562
0.000000
0.000000
3838.080322
3416.603027
0.000000
0.000000
2794.083252
2813.376221
0.000000
0.000000
1068.189087
1508.768677
0.000000
0.000000
0.000000
0.000000
0.000000
0.000000
0.000000
0.000000
0.000000
0.000000
443.317810
437.521545
0.000000
0.000000
0.000000
0.000000
0.000000
0.000000
121.293213
315.773254
0.000000
0.000000
18.535069
377.845123
0.000000
0.000000
137.305969
0.000000
0.000000
0.000000
1633.113037
2093.881348
0.000000
0.000000
851.008911
41.350452
0.000000
0.000000
1253.855225
1111.706299
0.000000
0.000000
2067.702637
2445.811768
0.000000
0.000000
213.282669
0.000000
0.000000
0.000000
1641.615723
986.105591
0.000000
0.000000
271.147278
542.041931
0.000000
0.000000
1617.447388
1802.138794
0.000000
0.000000
1314.651611
281.794952
0.000000
0.000000
2141.626221
777.778259
0.000000
0.000000
2761.053223
2174.712158
0.000000
0.000000
2282.527588
876.509338
0.000000
0.000000
1564.095703
779.786743
1080.997437
0.000000
0.000000
0.000000
0.000000
0.000000
0.000000
0.000000
0.000000
0.000000
0.000000
0.000000
0.000000
0.000000
0.000000
0.000000
0.000000
0.000000
0.000000
0.000000
0.000000
0.000000
0.000000
0.000000
0.000000
0.000000
1505.440186
1505.959717
2762.002686
2075.070557
0.000000
0.000000
0.000000
0.000000
0.000000
0.000000
0.000000
0.000000
0.000000
0.000000
0.000000
0.000000
0.000000
0.000000
0.000000
0.000000
0.000000
0.000000
0.000000
0.000000
0.000000
0.000000
0.000000
0.000000
0.000000
0.000000
0.000000
0.000000
0.000000
0.000000
0.000000
0.000000
0.000000
0.000000
0.000000
0.000000
0.000000
0.000000
0.000000
0.000000
0.000000
0.000000
0.000000
0.000000
0.000000
0.000000
0.000000
0.000000
0.000000
0.000000
0.000000
0.000000
0.000000
0.000000
0.000000
0.000000
0.000000
0.000000
0.000000
0.000000
0.000000
0.000000
0.000000
0.000000
0.000000
0.000000
0.000000
0.000000
0.000000
0.000000
0.000000
0.000000
0.000000
0.000000
0.000000
0.000000
0.000000
0.000000
</DataArray>
</PointData>
<Cells>
<DataArray type='Int32' Name='connectivity' format='ascii'>
0
1
2
3
4
5
6
7
8
9
10
11
12
13
14
15
16
17
18
19
20
21
22
23
24
25
26
27
28
29
30
31
32
33
34
35
36
37
38
39
40
41
42
43
44
45
46
47
48
49
50
51
52
53
54
55
56
57
58
59
60
61
62
63
64
65
66
67
68
69
70
71
72
73
74
75
76
77
78
79
80
81
82
83
84
85
86
87
88
89
90
91
92
93
94
95
96
97
98
99
100
101
102
103
104
105
106
107
108
109
110
111
112
113
114
115
116
117
118
119
120
121
122
123
124
125
126
127
128
129
130
131
132
133
134
135
136
137
138
139
140
141
142
143
144
145
146
147
148
149
150
151
152
153
154
155
156
157
158
159
160
161
162
163
164
165
166
167
168
169
170
171
172
173
174
175
176
177
178
179
180
181
182
183
184
185
186
187
188
189
190
191
192
193
194
195
196
197
198
199
200
201
202
203
204
205
206
207
208
209
210
211
212
213
214
215
216
217
218
219
220
221
222
223
224
225
226
227
228
229
230
231
232
233
234
235
236
237
238
239
240
241
242
243
244
245
246
247
248
249
250
251
252
253
254
255
256
257
258
259
260
261
262
263
264
265
266
267
268
269
270
271
272
273
274
275
276
277
278
279
280
281
282
283
284
285
286
287
288
289
290
291
292
293
294
295
296
297
298
299
300
301
302
303
304
305
306