<?xml version='1.0' encoding='UTF-8'?>
<VTKFile xmlns='VTK' byte_order='LittleEndian' version='0.1' type='UnstructuredGrid'>
<UnstructuredGrid>
<Piece NumberOfCells='584' NumberOfPoints='584'>
<Points>
<DataArray NumberOfComponents='3' type='Float32' Name='Position' format='ascii'>
-0.075000 -0.075000 0.000000
-0.075000 -0.050000 0.000000
-0.075000 -0.025000 0.000000
-0.075000 0.000000 0.000000
-0.075000 0.025000 0.000000
-0.075000 0.050000 0.000000
-0.075000 0.075000 0.000000
-0.075000 0.100000 0.000000
-0.075000 0.125000 0.000000
-0.075000 0.150000 0.000000
-0.075000 0.175000 0.000000
-0.075000 0.200000 0.000000
-0.075000 0.225000 0.000000
-0.075000 0.250000 0.000000
-0.075000 0.275000 0.000000
-0.075000 0.300000 0.000000
-0.075000 0.325000 0.000000
-0.075000 0.350000 0.000000
-0.075000 0.375000 0.000000
-0.075000 0.400000 0.000000
-0.075000 0.425000 0.000000
-0.075000 0.450000 0.000000
-0.075000 0.475000 0.000000
-0.075000 0.500000 0.000000
-0.075000 0.525000 0.000000
-0.075000 0.550000 0.000000
-0.075000 0.575000 0.000000
-0.075000 0.600000 0.000000
-0.050000 -0.075000 0.000000
-0.050000 -0.050000 0.000000
-0.050000 -0.025000 0.000000
-0.050000 0.000000 0.000000
-0.050000 0.025000 0.000000
-0.050000 0.050000 0.000000
-0.050000 0.075000 0.000000
-0.050000 0.100000 0.000000
-0.050000 0.125000 0.000000
-0.050000 0.150000 0.000000
-0.050000 0.175000 0.000000
-0.050000 0.200000 0.000000
-0.050000 0.225000 0.000000
-0.050000 0.250000 0.000000
-0.050000 0.275000 0.000000
-0.050000 0.300000 0.000000
-0.050000 0.325000 0.000000
-0.050000 0.350000 0.000000
-0.050000 0.375000 0.000000
-0.050000 0.400000 0.000000
-0.050000 0.425000 0.000000
-0.050000 0.450000 0.000000
-0.050000 0.475000 0.000000
-0.050000 0.500000 0.000000
-0.050000 0.525000 0.000000
-0.050000 0.550000 0.000000
-0.050000 0.575000 0.000000
-0.050000 0.600000 0.000000
-0.025000 -0.075000 0.000000
-0.025000 -0.050000 0.000000
-0.025000 -0.025000 0.000000
-0.025000 0.000000 0.000000
-0.025000 0.025000 0.000000
-0.025000 0.050000 0.000000
-0.025000 0.075000 0.000000
-0.025000 0.100000 0.000000
-0.025000 0.125000 0.000000
-0.025000 0.150000 0.000000
-0.025000 0.175000 0.000000
-0.025000 0.200000 0.000000
-0.025000 0.225000 0.000000
-0.025000 0.250000 0.000000
-0.025000 0.275000 0.000000
-0.025000 0.300000 0.000000
-0.025000 0.325000 0.000000
-0.025000 0.350000 0.000000
-0.025000 0.375000 0.000000
-0.025000 0.400000 0.000000
-0.025000 0.425000 0.000000
-0.025000 0.450000 0.000000
-0.025000 0.475000 0.000000
-0.025000 0.500000 0.000000
-0.025000 0.525000 0.000000
-0.025000 0.550000 0.000000
-0.025000 0.575000 0.000000
-0.025000 0.600000 0.000000
0.000000 -0.075000 0.000000
0.000000 -0.050000 0.000000
0.000000 -0.025000 0.000000
0.000000 0.000000 0.000000
0.000000 0.025000 0.000000
0.000000 0.050000 0.000000
0.000000 0.075000 0.000000
0.000000 0.100000 0.000000
0.000000 0.125000 0.000000
0.000000 0.150000 0.000000
0.000000 0.175000 0.000000
0.000000 0.200000 0.000000
0.000000 0.225000 0.000000
0.000000 0.250000 0.000000
0.000000 0.275000 0.000000
0.000000 0.300000 0.000000
0.000000 0.325000 0.000000
0.000000 0.350000 0.000000
0.000000 0.375000 0.000000
0.000000 0.400000 0.000000
0.000000 0.425000 0.000000
0.000000 0.450000 0.000000
0.000000 0.475000 0.000000
0.000000 0.500000 0.000000
0.000000 0.525000 0.000000
0.000000 0.550000 0.000000
0.000000 0.575000 0.000000
0.000000 0.600000 0.000000
0.025000 -0.075000 0.000000
0.025000 -0.050000 0.000000
0.025000 -0.025000 0.000000
0.025000 0.000000 0.000000
0.146545 0.057224 0.000000
0.225720 0.052989 0.000000
0.159101 0.037891 0.000000
0.177455 0.022256 0.000000
0.279257 0.027233 0.000000
0.082556 0.078073 0.000000
0.353018 0.025730 0.000000
0.221826 0.024480 0.000000
0.199969 0.028678 0.000000
0.021531 0.174454 0.000000
0.253688 0.023264 0.000000
0.048525 0.141416 0.000000
0.142716 0.022868 0.000000
0.055465 0.044885 0.000000
0.103761 0.086368 0.000000
0.034567 0.021636 0.000000
0.091824 0.153156 0.000000
0.090787 0.023974 0.000000
0.064943 0.119779 0.000000
0.118092 0.027328 0.000000
0.050000 -0.075000 0.000000
0.050000 -0.050000 0.000000
0.050000 -0.025000 0.000000
0.050000 0.000000 0.000000
0.265886 0.124808 0.000000
0.204518 0.218398 0.000000
0.267177 0.144871 0.000000
0.023726 0.037869 0.000000
0.036149 0.158075 0.000000
0.506607 0.042386 0.000000
0.207510 0.085592 0.000000
0.645293 0.043664 0.000000
0.264501 0.093333 0.000000
0.282067 0.138422 0.000000
0.037231 0.077829 0.000000
0.305187 0.050823 0.000000
0.085102 0.126934 0.000000
0.232913 0.120109 0.000000
0.113123 0.063165 0.000000
0.022750 0.098029 0.000000
0.205296 0.053210 0.000000
0.259908 0.071218 0.000000
0.072802 0.180732 0.000000
0.105223 0.045261 0.000000
0.075000 -0.075000 0.000000
0.075000 -0.050000 0.000000
0.075000 -0.025000 0.000000
0.075000 0.000000 0.000000
0.211471 0.110279 0.000000
0.169372 0.101134 0.000000
0.451388 0.050654 0.000000
0.370424 0.026682 0.000000
0.625818 0.097032 0.000000
0.713490 0.022357 0.000000
0.732106 0.038388 0.000000
0.048143 0.118300 0.000000
0.560002 0.090127 0.000000
0.708841 0.048821 0.000000
0.502303 0.023150 0.000000
0.200533 0.124378 0.000000
0.248101 0.041993 0.000000
0.292743 0.099667 0.000000
0.301187 0.024968 0.000000
0.101073 0.106628 0.000000
0.239869 0.096311 0.000000
0.027282 0.062501 0.000000
0.188512 0.075723 0.000000
0.163943 0.083620 0.000000
0.100000 -0.075000 0.000000
0.100000 -0.050000 0.000000
0.100000 -0.025000 0.000000
0.100000 0.000000 0.000000
0.552474 0.028638 0.000000
0.474191 0.088077 0.000000
0.570184 0.043281 0.000000
0.846235 0.021906 0.000000
0.278277 0.053290 0.000000
0.805871 0.021422 0.000000
0.743805 0.087212 0.000000
0.328216 0.047363 0.000000
0.749499 0.024447 0.000000
0.763148 0.044727 0.000000
0.532882 0.025439 0.000000
0.474901 0.118724 0.000000
0.647459 0.066738 0.000000
0.674349 0.046257 0.000000
0.283833 0.177883 0.000000
0.327424 0.023359 0.000000
0.607384 0.024927 0.000000
0.353645 0.103397 0.000000
0.436024 0.076336 0.000000
0.294842 0.073057 0.000000
0.125000 -0.075000 0.000000
0.125000 -0.050000 0.000000
0.125000 -0.025000 0.000000
0.125000 0.000000 0.000000
0.773621 0.089312 0.000000
0.833519 0.116884 0.000000
1.001237 0.099377 0.000000
0.875483 0.023112 0.000000
0.718202 0.125246 0.000000
0.661314 0.025334 0.000000
0.334457 0.140489 0.000000
0.645621 0.144235 0.000000
0.852173 0.070101 0.000000
0.794410 0.075485 0.000000
0.942332 0.067657 0.000000
0.646254 0.093223 0.000000
0.579291 0.023092 0.000000
0.595070 0.056694 0.000000
0.474318 0.024287 0.000000
0.618711 0.071534 0.000000
0.488354 0.122399 0.000000
0.137731 0.105352 0.000000
0.573099 0.070709 0.000000
0.053876 0.172013 0.000000
0.150000 -0.075000 0.000000
0.150000 -0.050000 0.000000
0.150000 -0.025000 0.000000
0.150000 0.000000 0.000000
0.345008 0.062821 0.000000
0.964640 0.022183 0.000000
0.794407 0.111832 0.000000
0.393481 0.061867 0.000000
0.920646 0.052319 0.000000
0.177757 0.059179 0.000000
0.977876 0.066171 0.000000
0.551834 0.069383 0.000000
1.002541 0.069961 0.000000
0.852379 0.109386 0.000000
0.893997 0.046530 0.000000
0.779768 0.025848 0.000000
0.874553 0.046690 0.000000
0.845410 0.087668 0.000000
0.827400 0.037286 0.000000
0.698157 0.063646 0.000000
0.686991 0.025368 0.000000
0.715854 0.084550 0.000000
0.736313 0.066733 0.000000
0.418693 0.113986 0.000000
0.175000 -0.075000 0.000000
0.175000 -0.050000 0.000000
0.175000 -0.025000 0.000000
0.175000 0.000000 0.000000
0.021743 0.118527 0.000000
0.749270 0.126930 0.000000
0.969744 0.121234 0.000000
0.953125 0.119667 0.000000
0.969954 0.046216 0.000000
0.104570 0.151813 0.000000
0.904175 0.026651 0.000000
0.387869 0.038649 0.000000
0.452480 0.025235 0.000000
0.932806 0.020855 0.000000
0.684365 0.116222 0.000000
0.808693 0.092511 0.000000
0.609344 0.097719 0.000000
0.941435 0.043008 0.000000
0.991304 0.043327 0.000000
0.471989 0.051809 0.000000
0.999918 0.023032 0.000000
0.558917 0.120855 0.000000
0.317861 0.126566 0.000000
0.580905 0.122331 0.000000
0.200000 -0.075000 0.000000
0.200000 -0.050000 0.000000
0.200000 -0.025000 0.000000
0.200000 0.000000 0.000000
0.503005 0.085450 0.000000
0.132948 0.068266 0.000000
0.382160 0.076584 0.000000
0.889031 0.075263 0.000000
0.430099 0.046701 0.000000
0.462693 0.143753 0.000000
0.670855 0.070094 0.000000
0.977225 0.089079 0.000000
0.529225 0.120993 0.000000
0.098767 0.188661 0.000000
0.893672 0.087772 0.000000
0.789680 0.047598 0.000000
0.068380 0.023209 0.000000
0.532551 0.055221 0.000000
0.736584 0.117832 0.000000
0.132993 0.137324 0.000000
0.811278 0.052000 0.000000
0.515008 0.128931 0.000000
0.953304 0.106786 0.000000
0.759026 0.067065 0.000000
0.225000 -0.075000 0.000000
0.225000 -0.050000 0.000000
0.225000 -0.025000 0.000000
0.225000 0.000000 0.000000
0.382601 0.121697 0.000000
0.925393 0.074051 0.000000
0.664282 0.099033 0.000000
0.239470 0.073276 0.000000
0.179180 0.122002 0.000000
0.058549 0.234669 0.000000
0.593085 0.091236 0.000000
0.984821 0.112619 0.000000
0.710403 0.104476 0.000000
0.242748 0.132893 0.000000
0.774043 0.108096 0.000000
0.067116 0.197052 0.000000
0.415202 0.018558 0.000000
0.514204 0.065830 0.000000
0.116822 0.118678 0.000000
0.402768 0.116087 0.000000
0.612292 0.048563 0.000000
0.073052 0.061801 0.000000
0.370037 0.137419 0.000000
0.411478 0.043389 0.000000
0.250000 -0.075000 0.000000
0.250000 -0.050000 0.000000
0.250000 -0.025000 0.000000
0.250000 0.000000 0.000000
0.824822 0.077300 0.000000
0.514908 0.104614 0.000000
0.429591 0.164441 0.000000
0.439511 0.114022 0.000000
0.366965 0.073208 0.000000
0.543978 0.102826 0.000000
0.303699 0.129428 0.000000
0.342528 0.080211 0.000000
0.311267 0.079124 0.000000
0.653455 0.132891 0.000000
0.335093 0.111769 0.000000
0.050766 0.202075 0.000000
0.142853 0.123657 0.000000
0.632863 0.022904 0.000000
0.488853 0.067112 0.000000
0.424664 0.086541 0.000000
0.456951 0.092783 0.000000
0.848864 0.050199 0.000000
0.062335 0.079243 0.000000
0.685941 0.094050 0.000000
0.275000 -0.075000 0.000000
0.275000 -0.050000 0.000000
0.275000 -0.025000 0.000000
0.275000 0.000000 0.000000
0.300000 -0.075000 0.000000
0.300000 -0.050000 0.000000
0.300000 -0.025000 0.000000
0.300000 0.000000 0.000000
0.325000 -0.075000 0.000000
0.325000 -0.050000 0.000000
0.325000 -0.025000 0.000000
0.325000 0.000000 0.000000
0.350000 -0.075000 0.000000
0.350000 -0.050000 0.000000
0.350000 -0.025000 0.000000
0.350000 0.000000 0.000000
0.375000 -0.075000 0.000000
0.375000 -0.050000 0.000000
0.375000 -0.025000 0.000000
0.375000 0.000000 0.000000
0.400000 -0.075000 0.000000
0.400000 -0.050000 0.000000
0.400000 -0.025000 0.000000
0.400000 0.000000 0.000000
0.425000 -0.075000 0.000000
0.425000 -0.050000 0.000000
0.425000 -0.025000 0.000000
0.425000 0.000000 0.000000
0.450000 -0.075000 0.000000
0.450000 -0.050000 0.000000
0.450000 -0.025000 0.000000
0.450000 0.000000 0.000000
0.475000 -0.075000 0.000000
0.475000 -0.050000 0.000000
0.475000 -0.025000 0.000000
0.475000 0.000000 0.000000
0.500000 -0.075000 0.000000
0.500000 -0.050000 0.000000
0.500000 -0.025000 0.000000
0.500000 0.000000 0.000000
0.525000 -0.075000 0.000000
0.525000 -0.050000 0.000000
0.525000 -0.025000 0.000000
0.525000 0.000000 0.000000
0.550000 -0.075000 0.000000
0.550000 -0.050000 0.000000
0.550000 -0.025000 0.000000
0.550000 0.000000 0.000000
0.575000 -0.075000 0.000000
0.575000 -0.050000 0.000000
0.575000 -0.025000 0.000000
0.575000 0.000000 0.000000
0.600000 -0.075000 0.000000
0.600000 -0.050000 0.000000
0.600000 -0.025000 0.000000
0.600000 0.000000 0.000000
0.625000 -0.075000 0.000000
0.625000 -0.050000 0.000000
0.625000 -0.025000 0.000000
0.625000 0.000000 0.000000
0.650000 -0.075000 0.000000
0.650000 -0.050000 0.000000
0.650000 -0.025000 0.000000
0.650000 0.000000 0.000000
0.675000 -0.075000 0.000000
0.675000 -0.050000 0.000000
0.675000 -0.025000 0.000000
0.675000 0.000000 0.000000
0.700000 -0.075000 0.000000
0.700000 -0.050000 0.000000
0.700000 -0.025000 0.000000
0.700000 0.000000 0.000000
0.725000 -0.075000 0.000000
0.725000 -0.050000 0.000000
0.725000 -0.025000 0.000000
0.725000 0.000000 0.000000
0.750000 -0.075000 0.000000
0.750000 -0.050000 0.000000
0.750000 -0.025000 0.000000
0.750000 0.000000 0.000000
0.775000 -0.075000 0.000000
0.775000 -0.050000 0.000000
0.775000 -0.025000 0.000000
0.775000 0.000000 0.000000
0.800000 -0.075000 0.000000
0.800000 -0.050000 0.000000
0.800000 -0.025000 0.000000
0.800000 0.000000 0.000000
0.825000 -0.075000 0.000000
0.825000 -0.050000 0.000000
0.825000 -0.025000 0.000000
0.825000 0.000000 0.000000
0.850000 -0.075000 0.000000
0.850000 -0.050000 0.000000
0.850000 -0.025000 0.000000
0.850000 0.000000 0.000000
0.875000 -0.075000 0.000000
0.875000 -0.050000 0.000000
0.875000 -0.025000 0.000000
0.875000 0.000000 0.000000
0.900000 -0.075000 0.000000
0.900000 -0.050000 0.000000
0.900000 -0.025000 0.000000
0.900000 0.000000 0.000000
0.925000 -0.075000 0.000000
0.925000 -0.050000 0.000000
0.925000 -0.025000 0.000000
0.925000 0.000000 0.000000
0.950000 -0.075000 0.000000
0.950000 -0.050000 0.000000
0.950000 -0.025000 0.000000
0.950000 0.000000 0.000000
0.975000 -0.075000 0.000000
0.975000 -0.050000 0.000000
0.975000 -0.025000 0.000000
0.975000 0.000000 0.000000
1.000000 -0.075000 0.000000
1.000000 -0.050000 0.000000
1.000000 -0.025000 0.000000
1.000000 0.000000 0.000000
1.025000 -0.075000 0.000000
1.025000 -0.050000 0.000000
1.025000 -0.025000 0.000000
1.025000 0.000000 0.000000
1.025000 0.025000 0.000000
1.025000 0.050000 0.000000
1.025000 0.075000 0.000000
1.025000 0.100000 0.000000
1.025000 0.125000 0.000000
1.025000 0.150000 0.000000
1.025000 0.175000 0.000000
1.025000 0.200000 0.000000
1.025000 0.225000 0.000000
1.025000 0.250000 0.000000
1.025000 0.275000 0.000000
1.025000 0.300000 0.000000
1.025000 0.325000 0.000000
1.025000 0.350000 0.000000
1.025000 0.375000 0.000000
1.025000 0.400000 0.000000
1.025000 0.425000 0.000000
1.025000 0.450000 0.000000
1.025000 0.475000 0.000000
1.025000 0.500000 0.000000
1.025000 0.525000 0.000000
1.025000 0.550000 0.000000
1.025000 0.575000 0.000000
1.025000 0.600000 0.000000
1.050000 -0.075000 0.000000
1.050000 -0.050000 0.000000
1.050000 -0.025000 0.000000
1.050000 0.000000 0.000000
1.050000 0.025000 0.000000
1.050000 0.050000 0.000000
1.050000 0.075000 0.000000
1.050000 0.100000 0.000000
1.050000 0.125000 0.000000
1.050000 0.150000 0.000000
1.050000 0.175000 0.000000
1.050000 0.200000 0.000000
1.050000 0.225000 0.000000
1.050000 0.250000 0.000000
1.050000 0.275000 0.000000
1.050000 0.300000 0.000000
1.050000 0.325000 0.000000
1.050000 0.350000 0.000000
1.050000 0.375000 0.000000
1.050000 0.400000 0.000000
1.050000 0.425000 0.000000
1.050000 0.450000 0.000000
1.050000 0.475000 0.000000
1.050000 0.500000 0.000000
1.050000 0.525000 0.000000
1.050000 0.550000 0.000000
1.050000 0.575000 0.000000
1.050000 0.600000 0.000000
1.075000 -0.075000 0.000000
1.075000 -0.050000 0.000000
1.075000 -0.025000 0.000000
1.075000 0.000000 0.000000
1.075000 0.025000 0.000000
1.075000 0.050000 0.000000
1.075000 0.075000 0.000000
1.075000 0.100000 0.000000
1.075000 0.125000 0.000000
1.075000 0.150000 0.000000
1.075000 0.175000 0.000000
1.075000 0.200000 0.000000
1.075000 0.225000 0.000000
1.075000 0.250000 0.000000
1.075000 0.275000 0.000000
1.075000 0.300000 0.000000
1.075000 0.325000 0.000000
1.075000 0.350000 0.000000
1.075000 0.375000 0.000000
1.075000 0.400000 0.000000
1.075000 0.425000 0.000000
1.075000 0.450000 0.000000
1.075000 0.475000 0.000000
1.075000 0.500000 0.000000
1.075000 0.525000 0.000000
1.075000 0.550000 0.000000
1.075000 0.575000 0.000000
1.075000 0.600000 0.000000
1.100000 -0.075000 0.000000
1.100000 -0.050000 0.000000
1.100000 -0.025000 0.000000
1.100000 0.000000 0.000000
1.100000 0.025000 0.000000
1.100000 0.050000 0.000000
1.100000 0.075000 0.000000
1.100000 0.100000 0.000000
1.100000 0.125000 0.000000
1.100000 0.150000 0.000000
1.100000 0.175000 0.000000
1.100000 0.200000 0.000000
1.100000 0.225000 0.000000
1.100000 0.250000 0.000000
1.100000 0.275000 0.000000
1.100000 0.300000 0.000000
1.100000 0.325000 0.000000
1.100000 0.350000 0.000000
1.100000 0.375000 0.000000
1.100000 0.400000 0.000000
1.100000 0.425000 0.000000
1.100000 0.450000 0.000000
1.100000 0.475000 0.000000
1.100000 0.500000 0.000000
1.100000 0.525000 0.000000
1.100000 0.550000 0.000000
1.100000 0.575000 0.000000
1.100000 0.600000 0.000000
</DataArray>
</Points>
<PointData>
<DataArray NumberOfComponents='1' type='Int32' Name='ParticleType' format='ascii'>
3
3
3
3
3
3
3
3
3
3
3
3
3
3
3
3
3
3
3
3
3
3
3
3
3
3
2
2
3
3
3
3
3
3
3
3
3
3
3
3
3
3
3
3
3
3
3
3
3
3
3
3
3
3
2
2
3
3
2
2
2
2
2
2
2
2
2
2
2
2
2
2
2
2
2
2
2
2
2
2
2
2
2
2
3
3
2
2
2
2
2
2
2
2
2
2
2
2
2
2
2
2
2
2
2
2
2
2
2
2
2
2
3
3
2
2
0
0
0
0
0
0
0
0
0
0
0
0
0
0
0
0
0
0
0
0
3
3
2
2
0
0
0
0
0
0
0
0
0
0
0
0
0
0
0
0
0
0
0
0
3
3
2
2
0
0
0
0
0
0
0
0
0
0
0
0
0
0
0
0
0
0
0
0
3
3
2
2
0
0
0
0
0
0
0
0
0
0
0
0
0
0
0
0
0
0
0
0
3
3
2
2
0
0
0
0
0
0
0
0
0
0
0
0
0
0
0
0
0
0
0
0
3
3
2
2
0
0
0
0
0
0
0
0
0
0
0
0
0
0
0
0
0
0
0
0
3
3
2
2
0
0
0
0
0
0
0
0
0
0
0
0
0
0
0
0
0
0
0
0
3
3
2
2
0
0
0
0
0
0
0
0
0
0
0
0
0
0
0
0
0
0
0
0
3
3
2
2
0
0
0
0
0
0
0
0
0
0
0
0
0
0
0
0
0
0
0
0
3
3
2
2
0
0
0
0
0
0
0
0
0
0
0
0
0
0
0
0
0
0
0
0
3
3
2
2
3
3
2
2
3
3
2
2
3
3
2
2
3
3
2
2
3
3
2
2
3
3
2
2
3
3
2
2
3
3
2
2
3
3
2
2
3
3
2
2
3
3
2
2
3
3
2
2
3
3
2
2
3
3
2
2
3
3
2
2
3
3
2
2
3
3
2
2
3
3
2
2
3
3
2
2
3
3
2
2
3
3
2
2
3
3
2
2
3
3
2
2
3
3
2
2
3
3
2
2
3
3
2
2
3
3
2
2
3
3
2
2
3
3
2
2
3
3
2
2
2
2
2
2
2
2
2
2
2
2
2
2
2
2
2
2
2
2
2
2
2
2
2
2
3
3
2
2
2
2
2
2
2
2
2
2
2
2
2
2
2
2
2
2
2
2
2
2
2
2
2
2
3
3
3
3
3
3
3
3
3
3
3
3
3
3
3
3
3
3
3
3
3
3
3
3
3
3
2
2
3
3
3
3
3
3
3
3
3
3
3
3
3
3
3
3
3
3
3
3
3
3
3
3
3
3
2
2
</DataArray>
<DataArray NumberOfComponents='1' type='Float32' Name='Velocity' format='ascii'>
0.000000
0.000000
0.000000
0.000000
0.000000
0.000000
0.000000
0.000000
0.000000
0.000000
0.000000
0.000000
0.000000
0.000000
0.000000
0.000000
0.000000
0.000000
0.000000
0.000000
0.000000
0.000000
0.000000
0.000000
0.000000
0.000000
0.000000
0.000000
0.000000
0.000000
0.000000
0.000000
0.000000
0.000000
0.000000
0.000000
0.000000
0.000000
0.000000
0.000000
0.000000
0.000000
0.000000
0.000000
0.000000
0.000000
0.000000
0.000000
0.000000
0.000000
0.000000
0.000000
0.000000
0.000000
0.000000
0.000000
0.000000
0.000000
0.000000
0.000000
0.000000
0.000000
0.000000
0.000000
0.000000
0.000000
0.000000
0.000000
0.000000
0.000000
0.000000
0.000000
0.000000
0.000000
0.000000
0.000000
0.000000
0.000000
0.000000
0.000000
0.000000
0.000000
0.000000
0.000000
0.000000
0.000000
0.000000
0.000000
0.000000
0.000000
0.000000
0.000000
0.000000
0.000000
0.000000
0.000000
0.000000
0.000000
0.000000
0.000000
0.000000
0.000000
0.000000
0.000000
0.000000
0.000000
0.000000
0.000000
0.000000
0.000000
0.000000
0.000000
0.000000
0.000000
0.000000
0.000000
0.468374
0.380020
0.260578
0.384968
0.673373
0.513242
0.758168
0.312957
0.357644
1.028602
0.303551
1.107192
0.233843
0.615788
0.084561
0.273899
1.457963
0.202207
0.427840
0.274239
0.000000
0.000000
0.000000
0.000000
0.822015
1.462331
1.080317
0.205025
0.589322
0.587353
0.359563
0.523018
0.728759
0.846056
0.510104
0.425544
0.736595
0.831272
0.251664
0.345581
0.127080
0.469024
1.492610
0.450782
0.000000
0.000000
0.000000
0.000000
0.878584
0.260445
0.642807
0.559104
1.071580
0.573863
0.475937
0.548544
0.899795
0.471550
0.508285
1.593231
0.154768
0.573694
0.327104
1.157348
0.927599
0.942469
1.006554
1.288682
0.000000
0.000000
0.000000
0.000000
0.501590
0.562807
0.608496
0.282677
0.803694
0.303725
0.304944
0.934650
0.350021
0.548431
0.559769
1.260771
0.980927
0.676485
1.400079
0.255934
0.469851
0.232077
0.525063
0.286792
0.000000
0.000000
0.000000
0.000000
0.603221
1.265325
0.394731
0.658044
1.144873
0.661334
1.281977
1.035826
1.268878
0.109495
0.365286
0.893820
0.520745
0.868225
0.276597
0.634032
1.247433
0.333271
0.648419
0.837208
0.000000
0.000000
0.000000
0.000000
0.301869
0.137531
0.176910
0.916647
0.481170
0.421485
0.208802
0.681376
0.280902
1.724235
0.621501
0.410139
0.277217
0.619449
0.343249
0.190378
0.557397
0.764375
0.235726
0.986127
0.000000
0.000000
0.000000
0.000000
0.514206
0.666120
0.074402
0.631346
0.448859
1.073477
0.525826
0.505708
0.318710
0.341938
0.837912
0.219867
0.898587
0.101550
0.108660
0.873770
0.438161
0.675460
1.226443
1.236247
0.000000
0.000000
0.000000
0.000000
0.976069
0.482350
0.839090
0.748746
0.532110
1.152210
0.578213
0.011755
0.708415
1.590997
0.850010
0.643776
0.510618
0.230591
0.850645
1.158168
0.573024
0.802271
0.377711
0.588556
0.000000
0.000000
0.000000
0.000000
1.372692
1.076349
0.708974
0.521459
0.566880
0.984431
1.149943
0.450735
0.562423
1.407200
0.614190
1.698704
0.585320
0.933374
0.912783
1.029754
0.802169
0.601671
1.102996
0.596286
0.000000
0.000000
0.000000
0.000000
0.495361
1.012407
1.080980
1.098630
1.422848
1.165090
1.117051
0.564483
0.805552
0.972595
0.146928
0.784351
1.668923
0.549152
0.557724
0.547807
0.778401
0.580904
0.792744
1.128661
0.000000
0.000000
0.000000
0.000000
0.000000
0.000000
0.000000
0.000000
0.000000
0.000000
0.000000
0.000000
0.000000
0.000000
0.000000
0.000000
0.000000
0.000000
0.000000
0.000000
0.000000
0.000000
0.000000
0.000000
0.000000
0.000000
0.000000
0.000000
0.000000
0.000000
0.000000
0.000000
0.000000
0.000000
0.000000
0.000000
0.000000
0.000000
0.000000
0.000000
0.000000
0.000000
0.000000
0.000000
0.000000
0.000000
0.000000
0.000000
0.000000
0.000000
0.000000
0.000000
0.000000
0.000000
0.000000
0.000000
0.000000
0.000000
0.000000
0.000000
0.000000
0.000000
0.000000
0.000000
0.000000
0.000000
0.000000
0.000000
0.000000
0.000000
0.000000
0.000000
0.000000
0.000000
0.000000
0.000000
0.000000
0.000000
0.000000
0.000000
0.000000
0.000000
0.000000
0.000000
0.000000
0.000000
0.000000
0.000000
0.000000
0.000000
0.000000
0.000000
0.000000
0.000000
0.000000
0.000000
0.000000
0.000000
0.000000
0.000000
0.000000
0.000000
0.000000
0.000000
0.000000
0.000000
0.000000
0.000000
0.000000
0.000000
0.000000
0.000000
0.000000
0.000000
0.000000
0.000000
0.000000
0.000000
0.000000
0.000000
0.000000
0.000000
0.000000
0.000000
0.000000
0.000000
0.000000
0.000000
0.000000
0.000000
0.000000
0.000000
0.000000
0.000000
0.000000
0.000000
0.000000
0.000000
0.000000
0.000000
0.000000
0.000000
0.000000
0.000000
0.000000
0.000000
0.000000
0.000000
0.000000
0.000000
0.000000
0.000000
0.000000
0.000000
0.000000
0.000000
0.000000
0.000000
0.000000
0.000000
0.000000
0.000000
0.000000
0.000000
0.000000
0.000000
0.000000
0.000000
0.000000
0.000000
0.000000
0.000000
0.000000
0.000000
0.000000
0.000000
0.000000
0.000000
0.000000
0.000000
0.000000
0.000000
0.000000
0.000000
0.000000
0.000000
0.000000
0.000000
0.000000
0.000000
0.000000
0.000000
0.000000
0.000000
0.000000
0.000000
0.000000
0.000000
0.000000
0.000000
0.000000
0.000000
0.000000
0.000000
0.000000
0.000000
0.000000
0.000000
0.000000
0.000000
0.000000
0.000000
0.000000
0.000000
0.000000
0.000000
0.000000
0.000000
0.000000
0.000000
0.000000
0.000000
0.000000
0.000000
0.000000
0.000000
0.000000
0.000000
0.000000
0.000000
0.000000
0.000000
</DataArray>
<DataArray NumberOfComponents='1' type='Float32' Name='pressure' format='ascii'>
0.000000
0.000000
0.000000
0.000000
0.000000
0.000000
0.000000
0.000000
0.000000
0.000000
0.000000
0.000000
0.000000
0.000000
0.000000
0.000000
0.000000
0.000000
0.000000
0.000000
0.000000
0.000000
0.000000
0.000000
0.000000
0.000000
0.000000
0.000000
0.000000
0.000000
0.000000
0.000000
0.000000
0.000000
0.000000
0.000000
0.000000
0.000000
0.000000
0.000000
0.000000
0.000000
0.000000
0.000000
0.000000
0.000000
0.000000
0.000000
0.000000
0.000000
0.000000
0.000000
0.000000
0.000000
0.000000
0.000000
0.000000
0.000000
3840.516357
3583.717285
3077.711182
2898.732910
2462.226807
4795.216309
3323.664307
438.202820
1490.927979
0.000000
0.000000
0.000000
0.000000
0.000000
0.000000
0.000000
0.000000
0.000000
0.000000
0.000000
0.000000
0.000000
0.000000
0.000000
0.000000
0.000000
0.000000
0.000000
4124.264160
3594.029541
2894.555908
1915.026123
2306.181152
7273.376465
505.283630
0.000000
0.000000
0.000000
0.000000
0.000000
0.000000
0.000000
0.000000
0.000000
0.000000
0.000000
0.000000
0.000000
0.000000
0.000000
0.000000
0.000000
0.000000
0.000000
0.000000
0.000000
5182.125000
4528.523438
1197.845215
1736.403687
243.364532
1868.462524
1098.334473
4018.219727
1731.085205
717.666260
1611.647095
0.000000
2425.293457
0.000000
711.576782
0.000000
132.342987
4996.211914
0.000000
0.000000
0.000000
0.000000
0.000000
0.000000
4834.052734
4225.629395
1356.564453
0.000000
0.000000
4650.216309
0.000000
1044.203613
0.000000
548.419006
0.000000
0.000000
1090.409912
2696.403320
0.000000
1097.144653
2344.108398
3167.491211
306.462097
535.748413
0.000000
1089.191284
0.000000
0.000000
4541.900391
4546.089844
0.000000
0.000000
1124.181519
1793.855591
0.000000
1376.694336
1273.492676
0.000000
738.178406
851.137268
1227.750977
0.000000
1158.550781
0.000000
3472.831055
871.726196
0.000000
2630.973145
1852.959717
0.000000
0.000000
0.000000
3201.531982
3616.808350
1239.903931
0.000000
873.029358
35.477585
0.000000
1568.738281
0.000000
481.200256
1099.240479
1454.176880
533.415527
0.000000
859.920349
1340.345947
0.000000
3366.735840
0.000000
0.000000
66.293236
1690.442993
0.000000
0.000000
2587.310547
1308.724609
1761.440674
0.000000
0.000000
989.676208
0.000000
1686.925293
0.000000
0.000000
565.766174
0.000000
0.000000
1493.157959
321.921234
704.499268
1214.655640
308.718536
0.000000
0.000000
914.843384
0.000000
0.000000
0.000000
3705.671631
4346.588379
3519.416992
0.000000
0.000000
0.000000
1520.016357
1211.148804
0.000000
0.000000
0.000000
0.000000
3530.456787
1211.355225
2472.006836
0.000000
1066.341431
670.012573
1353.694336
69.966179
1367.378906
0.000000
0.000000
0.000000
4032.294922
5125.277344
1087.160156
0.000000
166.115036
0.000000
1954.835327
0.000000
0.000000
0.000000
0.000000
2335.792480
0.000000
0.000000
0.000000
2671.263184
1960.834229
148.628494
426.669159
0.000000
0.000000
0.000000
0.000000
0.000000
1868.643799
1928.203613
289.920624
0.000000
0.000000
0.000000
1402.886963
0.000000
863.693848
0.000000
0.000000
0.000000
0.000000
1111.051270
0.000000
0.000000
0.000000
0.000000
955.931824
0.000000
900.411194
1257.205688
0.000000
0.000000
2216.310059
812.332642
0.000000
0.000000
0.000000
960.673828
0.000000
0.000000
0.000000
1145.151245
871.510803
0.000000
0.000000
0.000000
775.148743
627.863037
2759.941895
0.000000
1395.024658
3795.211426
0.000000
2378.425293
0.000000
0.000000
2617.305420
2816.574707
1560.499390
156.945908
0.000000
0.000000
3118.421143
1067.463623
0.000000
0.000000
0.000000
0.000000
0.000000
0.000000
0.000000
510.163788
935.351135
0.000000
0.000000
774.387756
0.000000
798.655151
0.000000
0.000000
1589.023071
1701.557129
0.000000
0.000000
2680.162354
2838.824707
0.000000
0.000000
3294.812012
4210.692383
0.000000
0.000000
2018.904419
3258.599121
0.000000
0.000000
1053.425903
0.000000
0.000000
0.000000
2889.068359
0.000000
0.000000
0.000000
3673.040771
1938.755249
0.000000
0.000000
1631.022949
0.000000
0.000000
0.000000
1934.838135
2235.895264
0.000000
0.000000
2046.428711
2543.051270
0.000000
0.000000
648.079529
156.361816
0.000000
0.000000
13.901382
0.000000
0.000000
0.000000
1527.780640
2098.984131
0.000000
0.000000
1118.991211
451.813477
0.000000
0.000000
1932.931396
2478.305664
0.000000
0.000000
1479.472778
1863.581665
0.000000
0.000000
976.490051
1186.867920
0.000000
0.000000
1756.835205
1032.794434
0.000000
0.000000
1787.205078
1249.377319
0.000000
0.000000
1534.328979
685.731750
0.000000
0.000000
1212.653442
810.505371
0.000000
0.000000
2927.633057
2461.416992
0.000000
0.000000
2315.812744
0.000000
0.000000
0.000000
3322.674072
2803.900146
0.000000
0.000000
3008.473633
3088.452881
0.000000
0.000000
1896.754272
423.851532
0.000000
0.000000
3995.533447
3310.833008
0.000000
0.000000
4227.300293
2811.156006
0.000000
0.000000
3208.734375
1525.206055
0.000000
0.000000
2886.274414
2683.645020
0.000000
0.000000
1834.156128
1996.453735
0.000000
0.000000
0.000000
0.000000
0.000000
0.000000
0.000000
0.000000
0.000000
0.000000
0.000000
0.000000
0.000000
0.000000
0.000000
0.000000
0.000000
0.000000
0.000000
0.000000
0.000000
0.000000
0.000000
0.000000
0.000000
0.000000
1505.973145
1100.738403
437.137268
0.000000
657.450195
93.762718
0.000000
0.000000
0.000000
0.000000
0.000000
0.000000
0.000000
0.000000
0.000000
0.000000
0.000000
0.000000
0.000000
0.000000
0.000000
0.000000
0.000000
0.000000
0.000000
0.000000
0.000000
0.000000
0.000000
0.000000
0.000000
0.000000
0.000000
0.000000
0.000000
0.000000
0.000000
0.000000
0.000000
0.000000
0.000000
0.000000
0.000000
0.000000
0.000000
0.000000
0.000000
0.000000
0.000000
0.000000
0.000000
0.000000
0.000000
0.000000
0.000000
0.000000
0.000000
0.000000
0.000000
0.000000
0.000000
0.000000
0.000000
0.000000
0.000000
0.000000
0.000000
0.000000
0.000000
0.000000
0.000000
0.000000
0.000000
0.000000
0.000000
0.000000
0.000000
0.000000
0.000000
0.000000
0.000000
0.000000
</DataArray>
</PointData>
<Cells>
<DataArray type='Int32' Name='connectivity' format='ascii'>
0
1
2
3
4
5
6
7
8
9
10
11
12
13
14
15
16
17
18
19
20
21
22
23
24
25
26
27
28
29
30
31
32
33
34
35
36
37
38
39
40
41
42
43
44
45
46
47
48
49
50
51
52
53
54
55
56
57
58
59
60
61
62
63
64
65
66
67
68
69
70
71
72
73
74
75
76
77
78
79
80
81
82
83
84
85
86
87
88
89
90
91
92
93
94
95
96
97
98
99
100
101
102
103
104
105
106
107
108
109
110
111
112
113
114
115
116
117
118
119
120
121
122
123
124
125
126
127
128
129
130
131
132
133
134
135
136
137
138
139
140
141
142
143
144
145
146
147
148
149
150
151
152
153
154
155
156
157
158
159
160
161
162
163
164
165
166
167
168
169
170
171
172
173
174
175
176
177
178
179
180
181
182
183
184
185
186
187
188
189
190
191
192
193
194
195
196
197
198
199
200
201
202
203
204
205
206
207
208
209
210
211
212
213
214
215
216
217
218
219
220
221
222
223
224
225
226
227
228
229
230
231
232
233
234
235
236
237
238
239
240
241
242
243
244
245
246
247
248
249
250
251
252
253
254
255
256
257
258
259
260
261
262
263
264
265
266
267
268
269
270
271
272
273
274
275
276
277
278
279
280
281
282
283
284
285
286
287
288
289
290
291
292
293
294
295
296
297
298
299
300