<?xml version='1.0' encoding='UTF-8'?>
<VTKFile xmlns='VTK' byte_order='LittleEndian' version='0.1' type='UnstructuredGrid'>
<UnstructuredGrid>
<Piece NumberOfCells='584' NumberOfPoints='584'>
<Points>
<DataArray NumberOfComponents='3' type='Float32' Name='Position' format='ascii'>
-0.075000 -0.075000 0.000000
-0.075000 -0.050000 0.000000
-0.075000 -0.025000 0.000000
-0.075000 0.000000 0.000000
-0.075000 0.025000 0.000000
-0.075000 0.050000 0.000000
-0.075000 0.075000 0.000000
-0.075000 0.100000 0.000000
-0.075000 0.125000 0.000000
-0.075000 0.150000 0.000000
-0.075000 0.175000 0.000000
-0.075000 0.200000 0.000000
-0.075000 0.225000 0.000000
-0.075000 0.250000 0.000000
-0.075000 0.275000 0.000000
-0.075000 0.300000 0.000000
-0.075000 0.325000 0.000000
-0.075000 0.350000 0.000000
-0.075000 0.375000 0.000000
-0.075000 0.400000 0.000000
-0.075000 0.425000 0.000000
-0.075000 0.450000 0.000000
-0.075000 0.475000 0.000000
-0.075000 0.500000 0.000000
-0.075000 0.525000 0.000000
-0.075000 0.550000 0.000000
-0.075000 0.575000 0.000000
-0.075000 0.600000 0.000000
-0.050000 -0.075000 0.000000
-0.050000 -0.050000 0.000000
-0.050000 -0.025000 0.000000
-0.050000 0.000000 0.000000
-0.050000 0.025000 0.000000
-0.050000 0.050000 0.000000
-0.050000 0.075000 0.000000
-0.050000 0.100000 0.000000
-0.050000 0.125000 0.000000
-0.050000 0.150000 0.000000
-0.050000 0.175000 0.000000
-0.050000 0.200000 0.000000
-0.050000 0.225000 0.000000
-0.050000 0.250000 0.000000
-0.050000 0.275000 0.000000
-0.050000 0.300000 0.000000
-0.050000 0.325000 0.000000
-0.050000 0.350000 0.000000
-0.050000 0.375000 0.000000
-0.050000 0.400000 0.000000
-0.050000 0.425000 0.000000
-0.050000 0.450000 0.000000
-0.050000 0.475000 0.000000
-0.050000 0.500000 0.000000
-0.050000 0.525000 0.000000
-0.050000 0.550000 0.000000
-0.050000 0.575000 0.000000
-0.050000 0.600000 0.000000
-0.025000 -0.075000 0.000000
-0.025000 -0.050000 0.000000
-0.025000 -0.025000 0.000000
-0.025000 0.000000 0.000000
-0.025000 0.025000 0.000000
-0.025000 0.050000 0.000000
-0.025000 0.075000 0.000000
-0.025000 0.100000 0.000000
-0.025000 0.125000 0.000000
-0.025000 0.150000 0.000000
-0.025000 0.175000 0.000000
-0.025000 0.200000 0.000000
-0.025000 0.225000 0.000000
-0.025000 0.250000 0.000000
-0.025000 0.275000 0.000000
-0.025000 0.300000 0.000000
-0.025000 0.325000 0.000000
-0.025000 0.350000 0.000000
-0.025000 0.375000 0.000000
-0.025000 0.400000 0.000000
-0.025000 0.425000 0.000000
-0.025000 0.450000 0.000000
-0.025000 0.475000 0.000000
-0.025000 0.500000 0.000000
-0.025000 0.525000 0.000000
-0.025000 0.550000 0.000000
-0.025000 0.575000 0.000000
-0.025000 0.600000 0.000000
0.000000 -0.075000 0.000000
0.000000 -0.050000 0.000000
0.000000 -0.025000 0.000000
0.000000 0.000000 0.000000
0.000000 0.025000 0.000000
0.000000 0.050000 0.000000
0.000000 0.075000 0.000000
0.000000 0.100000 0.000000
0.000000 0.125000 0.000000
0.000000 0.150000 0.000000
0.000000 0.175000 0.000000
0.000000 0.200000 0.000000
0.000000 0.225000 0.000000
0.000000 0.250000 0.000000
0.000000 0.275000 0.000000
0.000000 0.300000 0.000000
0.000000 0.325000 0.000000
0.000000 0.350000 0.000000
0.000000 0.375000 0.000000
0.000000 0.400000 0.000000
0.000000 0.425000 0.000000
0.000000 0.450000 0.000000
0.000000 0.475000 0.000000
0.000000 0.500000 0.000000
0.000000 0.525000 0.000000
0.000000 0.550000 0.000000
0.000000 0.575000 0.000000
0.000000 0.600000 0.000000
0.025000 -0.075000 0.000000
0.025000 -0.050000 0.000000
0.025000 -0.025000 0.000000
0.025000 0.000000 0.000000
0.124165 0.026784 0.000000
0.098838 0.022039 0.000000
0.077999 0.034054 0.000000
0.057052 0.022038 0.000000
0.136812 0.048783 0.000000
0.022853 0.025532 0.000000
0.149210 0.069796 0.000000
0.108920 0.049881 0.000000
0.086783 0.056065 0.000000
0.056174 0.057316 0.000000
0.102569 0.075567 0.000000
0.069607 0.076390 0.000000
0.041569 0.039382 0.000000
0.024168 0.061068 0.000000
0.023852 0.081114 0.000000
0.039945 0.106659 0.000000
0.057463 0.123654 0.000000
0.022766 0.122648 0.000000
0.035895 0.160048 0.000000
0.034235 0.144655 0.000000
0.050000 -0.075000 0.000000
0.050000 -0.050000 0.000000
0.050000 -0.025000 0.000000
0.050000 0.000000 0.000000
0.148292 0.025775 0.000000
0.166997 0.034661 0.000000
0.197606 0.042343 0.000000
0.264635 0.043105 0.000000
0.220926 0.064311 0.000000
0.222996 0.091205 0.000000
0.201801 0.074174 0.000000
0.274833 0.110896 0.000000
0.125618 0.075524 0.000000
0.178743 0.057254 0.000000
0.152980 0.091707 0.000000
0.178787 0.080373 0.000000
0.049352 0.085791 0.000000
0.127192 0.099215 0.000000
0.089122 0.099933 0.000000
0.109953 0.110999 0.000000
0.072808 0.108430 0.000000
0.085792 0.138288 0.000000
0.059390 0.151121 0.000000
0.081244 0.157765 0.000000
0.075000 -0.075000 0.000000
0.075000 -0.050000 0.000000
0.075000 -0.025000 0.000000
0.075000 0.000000 0.000000
0.187856 0.022321 0.000000
0.248431 0.054420 0.000000
0.261701 0.022434 0.000000
0.223632 0.039899 0.000000
0.302205 0.043878 0.000000
0.389361 0.035318 0.000000
0.388230 0.077727 0.000000
0.251825 0.078505 0.000000
0.305173 0.072591 0.000000
0.302666 0.125849 0.000000
0.278715 0.084029 0.000000
0.197264 0.101765 0.000000
0.168556 0.107067 0.000000
0.146923 0.129487 0.000000
0.125415 0.129185 0.000000
0.112597 0.147923 0.000000
0.129549 0.158680 0.000000
0.172930 0.147830 0.000000
0.174848 0.128634 0.000000
0.097741 0.168960 0.000000
0.100000 -0.075000 0.000000
0.100000 -0.050000 0.000000
0.100000 -0.025000 0.000000
0.100000 0.000000 0.000000
0.322629 0.032788 0.000000
0.296428 0.021612 0.000000
0.366271 0.021686 0.000000
0.465795 0.063726 0.000000
0.229132 0.020931 0.000000
0.434222 0.025579 0.000000
0.441411 0.050795 0.000000
0.415805 0.049740 0.000000
0.375421 0.049465 0.000000
0.396844 0.096066 0.000000
0.285499 0.057518 0.000000
0.336364 0.052874 0.000000
0.324334 0.080891 0.000000
0.296011 0.096864 0.000000
0.245956 0.095732 0.000000
0.150137 0.157785 0.000000
0.276158 0.128978 0.000000
0.241622 0.122916 0.000000
0.214038 0.133492 0.000000
0.200263 0.122981 0.000000
0.125000 -0.075000 0.000000
0.125000 -0.050000 0.000000
0.125000 -0.025000 0.000000
0.125000 0.000000 0.000000
0.524315 0.024522 0.000000
0.411187 0.023675 0.000000
0.673368 0.020903 0.000000
0.641445 0.028482 0.000000
0.648109 0.047355 0.000000
0.343463 0.024416 0.000000
0.480296 0.024889 0.000000
0.501721 0.027384 0.000000
0.485980 0.050714 0.000000
0.417148 0.067846 0.000000
0.500945 0.081728 0.000000
0.453090 0.074662 0.000000
0.368127 0.068126 0.000000
0.291850 0.156313 0.000000
0.274802 0.156119 0.000000
0.320948 0.117869 0.000000
0.405132 0.123704 0.000000
0.257590 0.157874 0.000000
0.338153 0.125125 0.000000
0.232681 0.135151 0.000000
0.150000 -0.075000 0.000000
0.150000 -0.050000 0.000000
0.150000 -0.025000 0.000000
0.150000 0.000000 0.000000
0.786663 0.026569 0.000000
0.694042 0.027303 0.000000
0.763088 0.051185 0.000000
0.701502 0.059906 0.000000
0.759571 0.023138 0.000000
0.787644 0.061009 0.000000
0.622712 0.031166 0.000000
0.711853 0.040487 0.000000
0.606968 0.022909 0.000000
0.621223 0.079270 0.000000
0.572156 0.022680 0.000000
0.458486 0.031595 0.000000
0.550627 0.025815 0.000000
0.557079 0.052478 0.000000
0.464230 0.105391 0.000000
0.379945 0.106527 0.000000
0.347138 0.068642 0.000000
0.387013 0.127831 0.000000
0.352629 0.120349 0.000000
0.341201 0.100758 0.000000
0.175000 -0.075000 0.000000
0.175000 -0.050000 0.000000
0.175000 -0.025000 0.000000
0.175000 0.000000 0.000000
0.939173 0.111005 0.000000
0.847867 0.022789 0.000000
0.933086 0.029667 0.000000
0.953329 0.028221 0.000000
0.912960 0.027788 0.000000
0.802376 0.040239 0.000000
0.891174 0.022648 0.000000
0.870573 0.032353 0.000000
0.778009 0.077302 0.000000
0.818555 0.022650 0.000000
0.672970 0.055736 0.000000
0.725594 0.064304 0.000000
0.584421 0.046658 0.000000
0.584262 0.096521 0.000000
0.521173 0.048846 0.000000
0.595610 0.060229 0.000000
0.534145 0.060322 0.000000
0.477188 0.104943 0.000000
0.427891 0.105901 0.000000
0.432311 0.092618 0.000000
0.200000 -0.075000 0.000000
0.200000 -0.050000 0.000000
0.200000 -0.025000 0.000000
0.200000 0.000000 0.000000
0.965272 0.337967 0.000000
0.993846 0.020907 0.000000
0.970103 0.218211 0.000000
0.973194 0.034598 0.000000
0.977584 0.056664 0.000000
0.977125 0.081382 0.000000
0.955326 0.090063 0.000000
0.953119 0.062300 0.000000
0.919907 0.054372 0.000000
0.900376 0.078900 0.000000
0.874349 0.061966 0.000000
0.726168 0.023549 0.000000
0.836399 0.074757 0.000000
0.749257 0.040739 0.000000
0.596323 0.091586 0.000000
0.645337 0.098393 0.000000
0.670412 0.075448 0.000000
0.572696 0.068077 0.000000
0.555249 0.088538 0.000000
0.497125 0.099274 0.000000
0.225000 -0.075000 0.000000
0.225000 -0.050000 0.000000
0.225000 -0.025000 0.000000
0.225000 0.000000 0.000000
0.999723 0.099833 0.000000
0.982564 0.506455 0.000000
1.001957 0.043138 0.000000
0.948917 0.238116 0.000000
1.003403 0.074288 0.000000
0.966032 0.252710 0.000000
0.984955 0.203155 0.000000
0.982144 0.134155 0.000000
0.984333 0.108394 0.000000
1.007060 0.155201 0.000000
0.952772 0.119770 0.000000
0.959687 0.165725 0.000000
0.925302 0.128528 0.000000
0.918127 0.089549 0.000000
0.858769 0.058606 0.000000
0.822371 0.060868 0.000000
0.791467 0.082604 0.000000
0.691140 0.078472 0.000000
0.627883 0.091788 0.000000
0.515166 0.089783 0.000000
0.250000 -0.075000 0.000000
0.250000 -0.050000 0.000000
0.250000 -0.025000 0.000000
0.250000 0.000000 0.000000
1.002013 0.519486 0.000000
0.957097 0.430614 0.000000
0.982616 0.250234 0.000000
0.989701 0.233286 0.000000
0.944350 0.501537 0.000000
0.997724 0.282157 0.000000
0.931155 0.427866 0.000000
0.978037 0.379592 0.000000
0.921393 0.273806 0.000000
0.994442 0.190182 0.000000
0.953750 0.177635 0.000000
0.945519 0.206203 0.000000
0.988746 0.163096 0.000000
0.924201 0.170114 0.000000
0.967625 0.139855 0.000000
0.935736 0.073575 0.000000
0.893988 0.059410 0.000000
0.835864 0.045179 0.000000
0.738299 0.091700 0.000000
0.649584 0.071790 0.000000
0.275000 -0.075000 0.000000
0.275000 -0.050000 0.000000
0.275000 -0.025000 0.000000
0.275000 0.000000 0.000000
0.300000 -0.075000 0.000000
0.300000 -0.050000 0.000000
0.300000 -0.025000 0.000000
0.300000 0.000000 0.000000
0.325000 -0.075000 0.000000
0.325000 -0.050000 0.000000
0.325000 -0.025000 0.000000
0.325000 0.000000 0.000000
0.350000 -0.075000 0.000000
0.350000 -0.050000 0.000000
0.350000 -0.025000 0.000000
0.350000 0.000000 0.000000
0.375000 -0.075000 0.000000
0.375000 -0.050000 0.000000
0.375000 -0.025000 0.000000
0.375000 0.000000 0.000000
0.400000 -0.075000 0.000000
0.400000 -0.050000 0.000000
0.400000 -0.025000 0.000000
0.400000 0.000000 0.000000
0.425000 -0.075000 0.000000
0.425000 -0.050000 0.000000
0.425000 -0.025000 0.000000
0.425000 0.000000 0.000000
0.450000 -0.075000 0.000000
0.450000 -0.050000 0.000000
0.450000 -0.025000 0.000000
0.450000 0.000000 0.000000
0.475000 -0.075000 0.000000
0.475000 -0.050000 0.000000
0.475000 -0.025000 0.000000
0.475000 0.000000 0.000000
0.500000 -0.075000 0.000000
0.500000 -0.050000 0.000000
0.500000 -0.025000 0.000000
0.500000 0.000000 0.000000
0.525000 -0.075000 0.000000
0.525000 -0.050000 0.000000
0.525000 -0.025000 0.000000
0.525000 0.000000 0.000000
0.550000 -0.075000 0.000000
0.550000 -0.050000 0.000000
0.550000 -0.025000 0.000000
0.550000 0.000000 0.000000
0.575000 -0.075000 0.000000
0.575000 -0.050000 0.000000
0.575000 -0.025000 0.000000
0.575000 0.000000 0.000000
0.600000 -0.075000 0.000000
0.600000 -0.050000 0.000000
0.600000 -0.025000 0.000000
0.600000 0.000000 0.000000
0.625000 -0.075000 0.000000
0.625000 -0.050000 0.000000
0.625000 -0.025000 0.000000
0.625000 0.000000 0.000000
0.650000 -0.075000 0.000000
0.650000 -0.050000 0.000000
0.650000 -0.025000 0.000000
0.650000 0.000000 0.000000
0.675000 -0.075000 0.000000
0.675000 -0.050000 0.000000
0.675000 -0.025000 0.000000
0.675000 0.000000 0.000000
0.700000 -0.075000 0.000000
0.700000 -0.050000 0.000000
0.700000 -0.025000 0.000000
0.700000 0.000000 0.000000
0.725000 -0.075000 0.000000
0.725000 -0.050000 0.000000
0.725000 -0.025000 0.000000
0.725000 0.000000 0.000000
0.750000 -0.075000 0.000000
0.750000 -0.050000 0.000000
0.750000 -0.025000 0.000000
0.750000 0.000000 0.000000
0.775000 -0.075000 0.000000
0.775000 -0.050000 0.000000
0.775000 -0.025000 0.000000
0.775000 0.000000 0.000000
0.800000 -0.075000 0.000000
0.800000 -0.050000 0.000000
0.800000 -0.025000 0.000000
0.800000 0.000000 0.000000
0.825000 -0.075000 0.000000
0.825000 -0.050000 0.000000
0.825000 -0.025000 0.000000
0.825000 0.000000 0.000000
0.850000 -0.075000 0.000000
0.850000 -0.050000 0.000000
0.850000 -0.025000 0.000000
0.850000 0.000000 0.000000
0.875000 -0.075000 0.000000
0.875000 -0.050000 0.000000
0.875000 -0.025000 0.000000
0.875000 0.000000 0.000000
0.900000 -0.075000 0.000000
0.900000 -0.050000 0.000000
0.900000 -0.025000 0.000000
0.900000 0.000000 0.000000
0.925000 -0.075000 0.000000
0.925000 -0.050000 0.000000
0.925000 -0.025000 0.000000
0.925000 0.000000 0.000000
0.950000 -0.075000 0.000000
0.950000 -0.050000 0.000000
0.950000 -0.025000 0.000000
0.950000 0.000000 0.000000
0.975000 -0.075000 0.000000
0.975000 -0.050000 0.000000
0.975000 -0.025000 0.000000
0.975000 0.000000 0.000000
1.000000 -0.075000 0.000000
1.000000 -0.050000 0.000000
1.000000 -0.025000 0.000000
1.000000 0.000000 0.000000
1.025000 -0.075000 0.000000
1.025000 -0.050000 0.000000
1.025000 -0.025000 0.000000
1.025000 0.000000 0.000000
1.025000 0.025000 0.000000
1.025000 0.050000 0.000000
1.025000 0.075000 0.000000
1.025000 0.100000 0.000000
1.025000 0.125000 0.000000
1.025000 0.150000 0.000000
1.025000 0.175000 0.000000
1.025000 0.200000 0.000000
1.025000 0.225000 0.000000
1.025000 0.250000 0.000000
1.025000 0.275000 0.000000
1.025000 0.300000 0.000000
1.025000 0.325000 0.000000
1.025000 0.350000 0.000000
1.025000 0.375000 0.000000
1.025000 0.400000 0.000000
1.025000 0.425000 0.000000
1.025000 0.450000 0.000000
1.025000 0.475000 0.000000
1.025000 0.500000 0.000000
1.025000 0.525000 0.000000
1.025000 0.550000 0.000000
1.025000 0.575000 0.000000
1.025000 0.600000 0.000000
1.050000 -0.075000 0.000000
1.050000 -0.050000 0.000000
1.050000 -0.025000 0.000000
1.050000 0.000000 0.000000
1.050000 0.025000 0.000000
1.050000 0.050000 0.000000
1.050000 0.075000 0.000000
1.050000 0.100000 0.000000
1.050000 0.125000 0.000000
1.050000 0.150000 0.000000
1.050000 0.175000 0.000000
1.050000 0.200000 0.000000
1.050000 0.225000 0.000000
1.050000 0.250000 0.000000
1.050000 0.275000 0.000000
1.050000 0.300000 0.000000
1.050000 0.325000 0.000000
1.050000 0.350000 0.000000
1.050000 0.375000 0.000000
1.050000 0.400000 0.000000
1.050000 0.425000 0.000000
1.050000 0.450000 0.000000
1.050000 0.475000 0.000000
1.050000 0.500000 0.000000
1.050000 0.525000 0.000000
1.050000 0.550000 0.000000
1.050000 0.575000 0.000000
1.050000 0.600000 0.000000
1.075000 -0.075000 0.000000
1.075000 -0.050000 0.000000
1.075000 -0.025000 0.000000
1.075000 0.000000 0.000000
1.075000 0.025000 0.000000
1.075000 0.050000 0.000000
1.075000 0.075000 0.000000
1.075000 0.100000 0.000000
1.075000 0.125000 0.000000
1.075000 0.150000 0.000000
1.075000 0.175000 0.000000
1.075000 0.200000 0.000000
1.075000 0.225000 0.000000
1.075000 0.250000 0.000000
1.075000 0.275000 0.000000
1.075000 0.300000 0.000000
1.075000 0.325000 0.000000
1.075000 0.350000 0.000000
1.075000 0.375000 0.000000
1.075000 0.400000 0.000000
1.075000 0.425000 0.000000
1.075000 0.450000 0.000000
1.075000 0.475000 0.000000
1.075000 0.500000 0.000000
1.075000 0.525000 0.000000
1.075000 0.550000 0.000000
1.075000 0.575000 0.000000
1.075000 0.600000 0.000000
1.100000 -0.075000 0.000000
1.100000 -0.050000 0.000000
1.100000 -0.025000 0.000000
1.100000 0.000000 0.000000
1.100000 0.025000 0.000000
1.100000 0.050000 0.000000
1.100000 0.075000 0.000000
1.100000 0.100000 0.000000
1.100000 0.125000 0.000000
1.100000 0.150000 0.000000
1.100000 0.175000 0.000000
1.100000 0.200000 0.000000
1.100000 0.225000 0.000000
1.100000 0.250000 0.000000
1.100000 0.275000 0.000000
1.100000 0.300000 0.000000
1.100000 0.325000 0.000000
1.100000 0.350000 0.000000
1.100000 0.375000 0.000000
1.100000 0.400000 0.000000
1.100000 0.425000 0.000000
1.100000 0.450000 0.000000
1.100000 0.475000 0.000000
1.100000 0.500000 0.000000
1.100000 0.525000 0.000000
1.100000 0.550000 0.000000
1.100000 0.575000 0.000000
1.100000 0.600000 0.000000
</DataArray>
</Points>
<PointData>
<DataArray NumberOfComponents='1' type='Int32' Name='ParticleType' format='ascii'>
3
3
3
3
3
3
3
3
3
3
3
3
3
3
3
3
3
3
3
3
3
3
3
3
3
3
2
2
3
3
3
3
3
3
3
3
3
3
3
3
3
3
3
3
3
3
3
3
3
3
3
3
3
3
2
2
3
3
2
2
2
2
2
2
2
2
2
2
2
2
2
2
2
2
2
2
2
2
2
2
2
2
2
2
3
3
2
2
2
2
2
2
2
2
2
2
2
2
2
2
2
2
2
2
2
2
2
2
2
2
2
2
3
3
2
2
0
0
0
0
0
0
0
0
0
0
0
0
0
0
0
0
0
0
0
0
3
3
2
2
0
0
0
0
0
0
0
0
0
0
0
0
0
0
0
0
0
0
0
0
3
3
2
2
0
0
0
0
0
0
0
0
0
0
0
0
0
0
0
0
0
0
0
0
3
3
2
2
0
0
0
0
0
0
0
0
0
0
0
0
0
0
0
0
0
0
0
0
3
3
2
2
0
0
0
0
0
0
0
0
0
0
0
0
0
0
0
0
0
0
0
0
3
3
2
2
0
0
0
0
0
0
0
0
0
0
0
0
0
0
0
0
0
0
0
0
3
3
2
2
0
0
0
0
0
0
0
0
0
0
0
0
0
0
0
0
0
0
0
0
3
3
2
2
0
0
0
0
0
0
0
0
0
0
0
0
0
0
0
0
0
0
0
0
3
3
2
2
0
0
0
0
0
0
0
0
0
0
0
0
0
0
0
0
0
0
0
0
3
3
2
2
0
0
0
0
0
0
0
0
0
0
0
0
0
0
0
0
0
0
0
0
3
3
2
2
3
3
2
2
3
3
2
2
3
3
2
2
3
3
2
2
3
3
2
2
3
3
2
2
3
3
2
2
3
3
2
2
3
3
2
2
3
3
2
2
3
3
2
2
3
3
2
2
3
3
2
2
3
3
2
2
3
3
2
2
3
3
2
2
3
3
2
2
3
3
2
2
3
3
2
2
3
3
2
2
3
3
2
2
3
3
2
2
3
3
2
2
3
3
2
2
3
3
2
2
3
3
2
2
3
3
2
2
3
3
2
2
3
3
2
2
3
3
2
2
2
2
2
2
2
2
2
2
2
2
2
2
2
2
2
2
2
2
2
2
2
2
2
2
3
3
2
2
2
2
2
2
2
2
2
2
2
2
2
2
2
2
2
2
2
2
2
2
2
2
2
2
3
3
3
3
3
3
3
3
3
3
3
3
3
3
3
3
3
3
3
3
3
3
3
3
3
3
2
2
3
3
3
3
3
3
3
3
3
3
3
3
3
3
3
3
3
3
3
3
3
3
3
3
3
3
2
2
</DataArray>
<DataArray NumberOfComponents='1' type='Float32' Name='Velocity' format='ascii'>
0.000000
0.000000
0.000000
0.000000
0.000000
0.000000
0.000000
0.000000
0.000000
0.000000
0.000000
0.000000
0.000000
0.000000
0.000000
0.000000
0.000000
0.000000
0.000000
0.000000
0.000000
0.000000
0.000000
0.000000
0.000000
0.000000
0.000000
0.000000
0.000000
0.000000
0.000000
0.000000
0.000000
0.000000
0.000000
0.000000
0.000000
0.000000
0.000000
0.000000
0.000000
0.000000
0.000000
0.000000
0.000000
0.000000
0.000000
0.000000
0.000000
0.000000
0.000000
0.000000
0.000000
0.000000
0.000000
0.000000
0.000000
0.000000
0.000000
0.000000
0.000000
0.000000
0.000000
0.000000
0.000000
0.000000
0.000000
0.000000
0.000000
0.000000
0.000000
0.000000
0.000000
0.000000
0.000000
0.000000
0.000000
0.000000
0.000000
0.000000
0.000000
0.000000
0.000000
0.000000
0.000000
0.000000
0.000000
0.000000
0.000000
0.000000
0.000000
0.000000
0.000000
0.000000
0.000000
0.000000
0.000000
0.000000
0.000000
0.000000
0.000000
0.000000
0.000000
0.000000
0.000000
0.000000
0.000000
0.000000
0.000000
0.000000
0.000000
0.000000
0.000000
0.000000
0.000000
0.000000
0.391447
0.706960
0.376548
0.275925
0.582066
0.304190
0.721510
0.665578
0.217020
0.153717
0.182784
0.643155
0.505072
0.427804
0.179711
0.750935
0.655934
0.669292
0.621326
0.412137
0.000000
0.000000
0.000000
0.000000
0.335482
0.666161
0.960324
0.790892
0.781457
0.596327
0.724881
0.966679
0.473479
1.027292
0.871284
0.771982
0.557900
0.347563
0.348183
0.405962
0.290273
0.570376
0.258232
0.616004
0.000000
0.000000
0.000000
0.000000
0.135201
0.595889
0.741408
0.704181
0.905303
0.877517
1.037289
0.644247
0.594374
1.511928
0.971085
0.701098
0.412022
0.289521
0.609689
0.709752
0.581981
1.014357
0.428983
0.557086
0.000000
0.000000
0.000000
0.000000
0.868536
0.290080
1.128616
1.778270
0.298261
1.247524
1.210812
1.489087
1.280902
1.271877
0.691696
0.942163
1.148166
1.040197
0.955422
0.373456
0.919746
0.905132
0.945077
0.905430
0.000000
0.000000
0.000000
0.000000
1.470287
1.404033
2.026126
2.074067
1.878755
0.505111
1.245471
1.418252
1.209198
1.332034
1.801003
1.564048
1.340257
0.849075
0.804891
1.246789
1.618457
0.647579
1.450282
0.696901
0.000000
0.000000
0.000000
0.000000
2.203126
2.067263
2.452645
2.394355
1.917503
2.021502
1.987204
1.843453
1.866720
1.784651
1.666788
1.322049
1.537274
1.811248
1.224245
0.829745
1.188652
1.435999
1.470992
1.474284
0.000000
0.000000
0.000000
0.000000
1.350760
1.850760
1.456844
1.355542
1.534125
2.106488
1.884766
2.149797
1.868438
1.918411
2.004669
2.535918
2.004321
1.362210
1.675604
2.065840
2.161956
1.369824
1.136078
1.335371
0.000000
0.000000
0.000000
0.000000
2.940937
0.795539
2.167305
1.793167
1.446043
1.637852
1.773222
1.248269
2.336429
2.371604
2.174617
2.140590
2.329690
2.183126
1.432372
1.446120
1.888725
2.004720
1.396736
1.621174
0.000000
0.000000
0.000000
0.000000
0.699988
3.955877
1.027913
1.875058
0.209588
2.029119
2.488911
2.175856
1.592464
2.047032
1.424983
2.221125
1.425158
1.756769
2.335551
2.273736
2.371071
2.212373
1.919811
1.989922
0.000000
0.000000
0.000000
0.000000
3.224147
3.276879
2.220469
2.477437
3.451383
2.652393
3.194685
2.899809
2.167474
2.473919
1.708468
1.317039
1.911841
1.646823
1.841133
1.366151
2.332681
2.021972
2.166380
2.009658
0.000000
0.000000
0.000000
0.000000
0.000000
0.000000
0.000000
0.000000
0.000000
0.000000
0.000000
0.000000
0.000000
0.000000
0.000000
0.000000
0.000000
0.000000
0.000000
0.000000
0.000000
0.000000
0.000000
0.000000
0.000000
0.000000
0.000000
0.000000
0.000000
0.000000
0.000000
0.000000
0.000000
0.000000
0.000000
0.000000
0.000000
0.000000
0.000000
0.000000
0.000000
0.000000
0.000000
0.000000
0.000000
0.000000
0.000000
0.000000
0.000000
0.000000
0.000000
0.000000
0.000000
0.000000
0.000000
0.000000
0.000000
0.000000
0.000000
0.000000
0.000000
0.000000
0.000000
0.000000
0.000000
0.000000
0.000000
0.000000
0.000000
0.000000
0.000000
0.000000
0.000000
0.000000
0.000000
0.000000
0.000000
0.000000
0.000000
0.000000
0.000000
0.000000
0.000000
0.000000
0.000000
0.000000
0.000000
0.000000
0.000000
0.000000
0.000000
0.000000
0.000000
0.000000
0.000000
0.000000
0.000000
0.000000
0.000000
0.000000
0.000000
0.000000
0.000000
0.000000
0.000000
0.000000
0.000000
0.000000
0.000000
0.000000
0.000000
0.000000
0.000000
0.000000
0.000000
0.000000
0.000000
0.000000
0.000000
0.000000
0.000000
0.000000
0.000000
0.000000
0.000000
0.000000
0.000000
0.000000
0.000000
0.000000
0.000000
0.000000
0.000000
0.000000
0.000000
0.000000
0.000000
0.000000
0.000000
0.000000
0.000000
0.000000
0.000000
0.000000
0.000000
0.000000
0.000000
0.000000
0.000000
0.000000
0.000000
0.000000
0.000000
0.000000
0.000000
0.000000
0.000000
0.000000
0.000000
0.000000
0.000000
0.000000
0.000000
0.000000
0.000000
0.000000
0.000000
0.000000
0.000000
0.000000
0.000000
0.000000
0.000000
0.000000
0.000000
0.000000
0.000000
0.000000
0.000000
0.000000
0.000000
0.000000
0.000000
0.000000
0.000000
0.000000
0.000000
0.000000
0.000000
0.000000
0.000000
0.000000
0.000000
0.000000
0.000000
0.000000
0.000000
0.000000
0.000000
0.000000
0.000000
0.000000
0.000000
0.000000
0.000000
0.000000
0.000000
0.000000
0.000000
0.000000
0.000000
0.000000
0.000000
0.000000
0.000000
0.000000
0.000000
0.000000
0.000000
0.000000
0.000000
0.000000
0.000000
0.000000
0.000000
0.000000
0.000000
0.000000
0.000000
0.000000
0.000000
0.000000
</DataArray>
<DataArray NumberOfComponents='1' type='Float32' Name='pressure' format='ascii'>
0.000000
0.000000
0.000000
0.000000
0.000000
0.000000
0.000000
0.000000
0.000000
0.000000
0.000000
0.000000
0.000000
0.000000
0.000000
0.000000
0.000000
0.000000
0.000000
0.000000
0.000000
0.000000
0.000000
0.000000
0.000000
0.000000
0.000000
0.000000
0.000000
0.000000
0.000000
0.000000
0.000000
0.000000
0.000000
0.000000
0.000000
0.000000
0.000000
0.000000
0.000000
0.000000
0.000000
0.000000
0.000000
0.000000
0.000000
0.000000
0.000000
0.000000
0.000000
0.000000
0.000000
0.000000
0.000000
0.000000
0.000000
0.000000
2764.099365
2699.012939
3084.339355
1680.849731
1723.063477
0.000000
694.182068
0.000000
0.000000
0.000000
0.000000
0.000000
0.000000
0.000000
0.000000
0.000000
0.000000
0.000000
0.000000
0.000000
0.000000
0.000000
0.000000
0.000000
0.000000
0.000000
0.000000
0.000000
2743.473877
3156.916992
2907.076904
1494.033691
637.923279
0.000000
0.000000
0.000000
0.000000
0.000000
0.000000
0.000000
0.000000
0.000000
0.000000
0.000000
0.000000
0.000000
0.000000
0.000000
0.000000
0.000000
0.000000
0.000000
0.000000
0.000000
0.000000
0.000000
2564.595947
2418.479736
2277.758789
2292.155029
2820.148193
2839.731445
21.175087
489.492462
1486.352783
1268.614746
2552.402832
0.000000
635.483276
864.207764
1875.172119
1887.486328
1251.275269
0.000000
966.399597
0.000000
0.000000
1754.976562
0.000000
0.000000
3609.084473
3163.132324
2935.727295
2184.430176
1143.773071
1807.369751
2533.677979
0.000000
1795.164185
264.109863
2740.055908
1488.514160
2156.589111
1659.987183
1318.710205
1093.088867
1149.098511
0.000000
926.928589
0.000000
0.000000
0.000000
0.000000
0.000000
2678.740234
1490.063599
1689.341553
196.911667
148.898682
1571.959961
1796.583618
0.000000
0.000000
1227.615601
737.574707
0.000000
286.488861
768.390076
1465.387451
289.105011
2016.079834
778.542419
0.000000
0.000000
883.465393
0.000000
0.000000
0.000000
3522.545410
3899.454590
1617.728271
0.000000
1385.681274
0.000000
3145.226318
1491.084351
868.726135
1537.465942
2051.412598
1706.894409
1226.723755
554.469177
0.000000
259.636597
0.000000
0.000000
152.885269
69.404549
0.000000
2996.571777
0.000000
0.000000
1407.979614
1215.039551
2916.148682
2360.480957
0.000000
632.838440
0.000000
1218.802979
2090.666016
1856.443359
0.000000
0.000000
52.310543
0.000000
1297.944092
0.000000
0.000000
173.426407
0.000000
0.000000
0.000000
0.000000
0.000000
0.000000
1272.344971
618.709595
0.000000
0.000000
0.000000
0.000000
1472.940552
2795.490723
1152.935913
809.131531
826.670105
438.138611
0.000000
0.000000
1608.933716
0.000000
0.000000
0.000000
0.000000
0.000000
0.000000
0.000000
0.000000
0.000000
1939.686523
428.876251
286.942108
377.196808
3957.622559
3767.103271
2345.000732
1860.323120
3104.663086
0.000000
0.000000
162.340546
1120.820435
0.000000
1405.949951
0.000000
0.000000
0.000000
0.000000
0.000000
0.000000
361.847656
0.000000
0.000000
2612.725586
614.818542
0.000000
6639.533691
0.000000
5234.594727
3359.445801
2676.509277
1972.465942
1762.948975
0.000000
0.000000
218.353867
0.000000
0.000000
388.524689
0.000000
0.000000
0.000000
770.274963
0.000000
0.000000
0.000000
0.000000
4142.729980
3895.982666
2448.833984
0.000000
2968.886475
0.000000
2927.250732
0.000000
0.000000
2632.885254
1170.328735
3474.032959
2656.329590
0.000000
0.000000
0.000000
958.611145
0.000000
0.000000
0.000000
303.358276
0.000000
0.000000
0.000000
3611.678711
2187.279785
0.000000
0.000000
0.000000
0.000000
0.000000
0.000000
0.000000
0.000000
0.000000
0.000000
0.000000
0.000000
0.000000
0.000000
3333.064209
4042.659668
2092.624756
2747.235596
0.000000
0.000000
0.000000
0.000000
2584.621094
0.000000
0.000000
0.000000
2703.782959
1443.022217
0.000000
0.000000
903.794312
0.000000
0.000000
0.000000
2942.914795
3051.688721
0.000000
0.000000
2637.822021
2637.264648
0.000000
0.000000
1095.967163
0.000000
0.000000
0.000000
537.251404
27.021252
0.000000
0.000000
0.000000
0.000000
0.000000
0.000000
83.550804
0.000000
0.000000
0.000000
0.000000
654.294434
0.000000
0.000000
1482.446411
1800.198120
0.000000
0.000000
1551.494751
2210.495850
0.000000
0.000000
2581.224854
2589.353516
0.000000
0.000000
1960.058838
1329.411133
0.000000
0.000000
632.688538
409.728973
0.000000
0.000000
399.754395
0.000000
0.000000
0.000000
2219.940674
2304.575684
0.000000
0.000000
0.000000
736.399109
0.000000
0.000000
423.191376
0.000000
0.000000
0.000000
0.000000
0.000000
0.000000
0.000000
0.000000
0.000000
0.000000
0.000000
0.000000
0.000000
0.000000
0.000000
1987.411133
2580.528564
0.000000
0.000000
2953.434570
3296.407227
0.000000
0.000000
2388.666992
2003.968384
0.000000
0.000000
2832.486328
3865.865723
0.000000
0.000000
1083.309326
1250.439575
0.000000
0.000000
1105.020874
0.000000
0.000000
0.000000
2870.290039
0.000000
0.000000
0.000000
5135.302734
6061.668457
0.000000
0.000000
4167.297363
3890.006104
1949.591553
3853.412354
6131.189453
515.050293
0.000000
5245.474121
0.000000
0.000000
0.000000
0.000000
0.000000
0.000000
0.000000
0.000000
0.000000
0.000000
0.000000
0.000000
0.000000
0.000000
0.000000
0.000000
0.000000
0.000000
0.000000
0.000000
4047.207764
3860.962402
3362.053223
4371.295410
4837.271973
2810.420166
1947.822021
5226.102539
2714.072021
0.000000
0.000000
0.000000
0.000000
0.000000
0.000000
0.000000
0.000000
0.000000
0.000000
0.000000
0.000000
0.000000
0.000000
0.000000
0.000000
0.000000
0.000000
0.000000
0.000000
0.000000
0.000000
0.000000
0.000000
0.000000
0.000000
0.000000
0.000000
0.000000
0.000000
0.000000
0.000000
0.000000
0.000000
0.000000
0.000000
0.000000
0.000000
0.000000
0.000000
0.000000
0.000000
0.000000
0.000000
0.000000
0.000000
0.000000
0.000000
0.000000
0.000000
0.000000
0.000000
0.000000
0.000000
0.000000
0.000000
0.000000
0.000000
0.000000
0.000000
0.000000
0.000000
0.000000
0.000000
0.000000
0.000000
0.000000
0.000000
0.000000
0.000000
0.000000
0.000000
0.000000
</DataArray>
</PointData>
<Cells>
<DataArray type='Int32' Name='connectivity' format='ascii'>
0
1
2
3
4
5
6
7
8
9
10
11
12
13
14
15
16
17
18
19
20
21
22
23
24
25
26
27
28
29
30
31
32
33
34
35
36
37
38
39
40
41
42
43
44
45
46
47
48
49
50
51
52
53
54
55
56
57
58
59
60
61
62
63
64
65
66
67
68
69
70
71
72
73
74
75
76
77
78
79
80
81
82
83
84
85
86
87
88
89
90
91
92
93
94
95
96
97
98
99
100
101
102
103
104
105
106
107
108
109
110
111
112
113
114
115
116
117
118
119
120
121
122
123
124
125
126
127
128
129
130
131
132
133
134
135
136
137
138
139
140
141
142
143
144
145
146
147
148
149
150
151
152
153
154
155
156
157
158
159
160
161
162
163
164
165
166
167
168
169
170
171
172
173
174
175
176
177
178
179
180
181
182
183
184
185
186
187
188
189
190
191
192
193
194
195
196
197
198
199
200
201
202
203
204
205
206
207
208
209
210
211
212
213
214
215
216
217
218
219
220
221
222
223
224
225
226
227
228
229
230
231
232
233
234
235
236
237
238
239
240
241
242
243
244
245
246
247
248
249
250
251
252
253
254
255
256
257
258
259
260
261
262
263
264
265
266
267
268
269
270
271
272
273
274
275
276
277
278
279
280
281
282
283
284
285
286
287
288
289
290
291
292
293
294
295
296
297
298
299
300
301
302
303