<?xml version='1.0' encoding='UTF-8'?>
<VTKFile xmlns='VTK' byte_order='LittleEndian' version='0.1' type='UnstructuredGrid'>
<UnstructuredGrid>
<Piece NumberOfCells='584' NumberOfPoints='584'>
<Points>
<DataArray NumberOfComponents='3' type='Float32' Name='Position' format='ascii'>
-0.075000 -0.075000 0.000000
-0.075000 -0.050000 0.000000
-0.075000 -0.025000 0.000000
-0.075000 0.000000 0.000000
-0.075000 0.025000 0.000000
-0.075000 0.050000 0.000000
-0.075000 0.075000 0.000000
-0.075000 0.100000 0.000000
-0.075000 0.125000 0.000000
-0.075000 0.150000 0.000000
-0.075000 0.175000 0.000000
-0.075000 0.200000 0.000000
-0.075000 0.225000 0.000000
-0.075000 0.250000 0.000000
-0.075000 0.275000 0.000000
-0.075000 0.300000 0.000000
-0.075000 0.325000 0.000000
-0.075000 0.350000 0.000000
-0.075000 0.375000 0.000000
-0.075000 0.400000 0.000000
-0.075000 0.425000 0.000000
-0.075000 0.450000 0.000000
-0.075000 0.475000 0.000000
-0.075000 0.500000 0.000000
-0.075000 0.525000 0.000000
-0.075000 0.550000 0.000000
-0.075000 0.575000 0.000000
-0.075000 0.600000 0.000000
-0.050000 -0.075000 0.000000
-0.050000 -0.050000 0.000000
-0.050000 -0.025000 0.000000
-0.050000 0.000000 0.000000
-0.050000 0.025000 0.000000
-0.050000 0.050000 0.000000
-0.050000 0.075000 0.000000
-0.050000 0.100000 0.000000
-0.050000 0.125000 0.000000
-0.050000 0.150000 0.000000
-0.050000 0.175000 0.000000
-0.050000 0.200000 0.000000
-0.050000 0.225000 0.000000
-0.050000 0.250000 0.000000
-0.050000 0.275000 0.000000
-0.050000 0.300000 0.000000
-0.050000 0.325000 0.000000
-0.050000 0.350000 0.000000
-0.050000 0.375000 0.000000
-0.050000 0.400000 0.000000
-0.050000 0.425000 0.000000
-0.050000 0.450000 0.000000
-0.050000 0.475000 0.000000
-0.050000 0.500000 0.000000
-0.050000 0.525000 0.000000
-0.050000 0.550000 0.000000
-0.050000 0.575000 0.000000
-0.050000 0.600000 0.000000
-0.025000 -0.075000 0.000000
-0.025000 -0.050000 0.000000
-0.025000 -0.025000 0.000000
-0.025000 0.000000 0.000000
-0.025000 0.025000 0.000000
-0.025000 0.050000 0.000000
-0.025000 0.075000 0.000000
-0.025000 0.100000 0.000000
-0.025000 0.125000 0.000000
-0.025000 0.150000 0.000000
-0.025000 0.175000 0.000000
-0.025000 0.200000 0.000000
-0.025000 0.225000 0.000000
-0.025000 0.250000 0.000000
-0.025000 0.275000 0.000000
-0.025000 0.300000 0.000000
-0.025000 0.325000 0.000000
-0.025000 0.350000 0.000000
-0.025000 0.375000 0.000000
-0.025000 0.400000 0.000000
-0.025000 0.425000 0.000000
-0.025000 0.450000 0.000000
-0.025000 0.475000 0.000000
-0.025000 0.500000 0.000000
-0.025000 0.525000 0.000000
-0.025000 0.550000 0.000000
-0.025000 0.575000 0.000000
-0.025000 0.600000 0.000000
0.000000 -0.075000 0.000000
0.000000 -0.050000 0.000000
0.000000 -0.025000 0.000000
0.000000 0.000000 0.000000
0.000000 0.025000 0.000000
0.000000 0.050000 0.000000
0.000000 0.075000 0.000000
0.000000 0.100000 0.000000
0.000000 0.125000 0.000000
0.000000 0.150000 0.000000
0.000000 0.175000 0.000000
0.000000 0.200000 0.000000
0.000000 0.225000 0.000000
0.000000 0.250000 0.000000
0.000000 0.275000 0.000000
0.000000 0.300000 0.000000
0.000000 0.325000 0.000000
0.000000 0.350000 0.000000
0.000000 0.375000 0.000000
0.000000 0.400000 0.000000
0.000000 0.425000 0.000000
0.000000 0.450000 0.000000
0.000000 0.475000 0.000000
0.000000 0.500000 0.000000
0.000000 0.525000 0.000000
0.000000 0.550000 0.000000
0.000000 0.575000 0.000000
0.000000 0.600000 0.000000
0.025000 -0.075000 0.000000
0.025000 -0.050000 0.000000
0.025000 -0.025000 0.000000
0.025000 0.000000 0.000000
0.191300 0.024722 0.000000
0.171562 0.028436 0.000000
0.142496 0.022306 0.000000
0.102472 0.026465 0.000000
0.241130 0.049456 0.000000
0.048134 0.025273 0.000000
0.322607 0.050639 0.000000
0.212328 0.036938 0.000000
0.124628 0.030719 0.000000
0.089605 0.047184 0.000000
0.165514 0.047572 0.000000
0.137841 0.058178 0.000000
0.078526 0.022633 0.000000
0.021752 0.025593 0.000000
0.032529 0.052851 0.000000
0.024435 0.071500 0.000000
0.070771 0.060894 0.000000
0.039467 0.093185 0.000000
0.025810 0.096929 0.000000
0.067019 0.085993 0.000000
0.050000 -0.075000 0.000000
0.050000 -0.050000 0.000000
0.050000 -0.025000 0.000000
0.050000 0.000000 0.000000
0.225150 0.023637 0.000000
0.281311 0.065628 0.000000
0.383827 0.076258 0.000000
0.383874 0.052839 0.000000
0.362022 0.087222 0.000000
0.390594 0.101143 0.000000
0.342156 0.052545 0.000000
0.487783 0.044661 0.000000
0.264732 0.043346 0.000000
0.289730 0.024399 0.000000
0.336956 0.074662 0.000000
0.292118 0.044051 0.000000
0.052975 0.044296 0.000000
0.310649 0.078726 0.000000
0.148911 0.086530 0.000000
0.193437 0.063973 0.000000
0.119342 0.061975 0.000000
0.166797 0.070689 0.000000
0.079867 0.082705 0.000000
0.104157 0.071889 0.000000
0.075000 -0.075000 0.000000
0.075000 -0.050000 0.000000
0.075000 -0.025000 0.000000
0.075000 0.000000 0.000000
0.258041 0.021406 0.000000
0.364243 0.043436 0.000000
0.374517 0.025510 0.000000
0.339791 0.019416 0.000000
0.517918 0.046744 0.000000
0.594240 0.026159 0.000000
0.615448 0.024784 0.000000
0.411017 0.062311 0.000000
0.535417 0.097326 0.000000
0.547346 0.054706 0.000000
0.420664 0.041003 0.000000
0.302258 0.114329 0.000000
0.292921 0.092822 0.000000
0.264361 0.077561 0.000000
0.245930 0.070504 0.000000
0.178423 0.085485 0.000000
0.208177 0.076684 0.000000
0.320844 0.100706 0.000000
0.285915 0.111693 0.000000
0.132893 0.097786 0.000000
0.100000 -0.075000 0.000000
0.100000 -0.050000 0.000000
0.100000 -0.025000 0.000000
0.100000 0.000000 0.000000
0.427004 0.023085 0.000000
0.397538 0.024903 0.000000
0.569011 0.022767 0.000000
0.807150 0.029199 0.000000
0.317242 0.029593 0.000000
0.693110 0.025882 0.000000
0.700190 0.043124 0.000000
0.671182 0.069438 0.000000
0.620140 0.048112 0.000000
0.653620 0.020591 0.000000
0.446235 0.045235 0.000000
0.463487 0.026780 0.000000
0.529250 0.074614 0.000000
0.552708 0.081218 0.000000
0.451432 0.086678 0.000000
0.220435 0.065863 0.000000
0.462370 0.056039 0.000000
0.469576 0.083042 0.000000
0.361969 0.109467 0.000000
0.345042 0.106797 0.000000
0.125000 -0.075000 0.000000
0.125000 -0.050000 0.000000
0.125000 -0.025000 0.000000
0.125000 0.000000 0.000000
0.827070 0.025660 0.000000
0.669648 0.041042 0.000000
0.971941 0.068797 0.000000
0.941448 0.027387 0.000000
0.958732 0.089975 0.000000
0.484375 0.025951 0.000000
0.779217 0.044182 0.000000
0.852023 0.057776 0.000000
0.781015 0.022291 0.000000
0.681900 0.076276 0.000000
0.814914 0.073721 0.000000
0.759164 0.043711 0.000000
0.626964 0.086008 0.000000
0.507500 0.066437 0.000000
0.429191 0.076833 0.000000
0.544847 0.033972 0.000000
0.722962 0.052582 0.000000
0.408740 0.088665 0.000000
0.580498 0.069156 0.000000
0.385733 0.117030 0.000000
0.150000 -0.075000 0.000000
0.150000 -0.050000 0.000000
0.150000 -0.025000 0.000000
0.150000 0.000000 0.000000
0.985712 0.120950 0.000000
0.952213 0.066790 0.000000
0.984944 0.217865 0.000000
0.959560 0.277337 0.000000
0.975992 0.042907 0.000000
0.939917 0.324555 0.000000
0.932680 0.064344 0.000000
0.933539 0.117901 0.000000
0.923549 0.040135 0.000000
0.906028 0.079650 0.000000
0.907384 0.024429 0.000000
0.746811 0.026733 0.000000
0.848412 0.025389 0.000000
0.882442 0.022963 0.000000
0.722154 0.020407 0.000000
0.636262 0.061902 0.000000
0.575979 0.048483 0.000000
0.651279 0.045907 0.000000
0.602106 0.057322 0.000000
0.527529 0.020633 0.000000
0.175000 -0.075000 0.000000
0.175000 -0.050000 0.000000
0.175000 -0.025000 0.000000
0.175000 0.000000 0.000000
0.791475 0.341930 0.000000
0.985272 0.091975 0.000000
1.002593 0.204001 0.000000
0.999864 0.106498 0.000000
1.001432 0.067154 0.000000
0.971171 0.270611 0.000000
0.990801 0.022008 0.000000
0.984684 0.147115 0.000000
0.949410 0.218164 0.000000
1.002516 0.045021 0.000000
0.948830 0.160805 0.000000
0.992404 0.174743 0.000000
0.917212 0.114325 0.000000
0.888715 0.066402 0.000000
0.827385 0.067322 0.000000
0.936772 0.147509 0.000000
0.902469 0.051233 0.000000
0.789846 0.074189 0.000000
0.714020 0.064398 0.000000
0.750426 0.062423 0.000000
0.200000 -0.075000 0.000000
0.200000 -0.050000 0.000000
0.200000 -0.025000 0.000000
0.200000 0.000000 0.000000
0.896590 0.725149 0.000000
1.008142 0.243918 0.000000
0.936731 0.487680 0.000000
0.991281 0.284854 0.000000
0.939099 0.351475 0.000000
0.934551 0.382074 0.000000
0.961054 0.397769 0.000000
1.003535 0.353337 0.000000
0.977368 0.249710 0.000000
0.916850 0.339048 0.000000
0.990071 0.313214 0.000000
0.961274 0.023663 0.000000
0.911947 0.323245 0.000000
0.960593 0.112870 0.000000
0.880329 0.098577 0.000000
0.944664 0.183231 0.000000
0.980413 0.203603 0.000000
0.918059 0.093551 0.000000
0.865483 0.039828 0.000000
0.806864 0.054574 0.000000
0.225000 -0.075000 0.000000
0.225000 -0.050000 0.000000
0.225000 -0.025000 0.000000
0.225000 0.000000 0.000000
0.969098 0.375342 0.000000
0.969093 1.100526 0.000000
0.953523 0.342688 0.000000
0.878225 0.412478 0.000000
0.809844 0.310895 0.000000
0.884288 0.461523 0.000000
0.953135 0.492383 0.000000
0.991680 0.405094 0.000000
0.992998 0.366834 0.000000
0.936613 0.410670 0.000000
0.990074 0.386602 0.000000
0.923097 0.408174 0.000000
0.789507 0.317780 0.000000
0.875762 0.310629 0.000000
0.959525 0.303186 0.000000
0.970380 0.313241 0.000000
0.922708 0.271676 0.000000
0.960258 0.135739 0.000000
0.903859 0.132322 0.000000
0.863316 0.069758 0.000000
0.250000 -0.075000 0.000000
0.250000 -0.050000 0.000000
0.250000 -0.025000 0.000000
0.250000 0.000000 0.000000
0.981142 0.966984 0.000000
0.880037 0.884463 0.000000
0.890855 0.524867 0.000000
0.932103 0.540357 0.000000
0.807626 0.981158 0.000000
0.964433 0.609417 0.000000
0.811414 0.858503 0.000000
0.876052 0.753534 0.000000
0.775810 0.485144 0.000000
0.962922 0.472310 0.000000
0.860077 0.328941 0.000000
0.915109 0.383980 0.000000
0.930630 0.444273 0.000000
0.717485 0.229551 0.000000
0.911748 0.369026 0.000000
0.863371 0.157494 0.000000
0.880576 0.332359 0.000000
1.000383 0.153035 0.000000
0.926501 0.218499 0.000000
0.958415 0.183913 0.000000
0.275000 -0.075000 0.000000
0.275000 -0.050000 0.000000
0.275000 -0.025000 0.000000
0.275000 0.000000 0.000000
0.300000 -0.075000 0.000000
0.300000 -0.050000 0.000000
0.300000 -0.025000 0.000000
0.300000 0.000000 0.000000
0.325000 -0.075000 0.000000
0.325000 -0.050000 0.000000
0.325000 -0.025000 0.000000
0.325000 0.000000 0.000000
0.350000 -0.075000 0.000000
0.350000 -0.050000 0.000000
0.350000 -0.025000 0.000000
0.350000 0.000000 0.000000
0.375000 -0.075000 0.000000
0.375000 -0.050000 0.000000
0.375000 -0.025000 0.000000
0.375000 0.000000 0.000000
0.400000 -0.075000 0.000000
0.400000 -0.050000 0.000000
0.400000 -0.025000 0.000000
0.400000 0.000000 0.000000
0.425000 -0.075000 0.000000
0.425000 -0.050000 0.000000
0.425000 -0.025000 0.000000
0.425000 0.000000 0.000000
0.450000 -0.075000 0.000000
0.450000 -0.050000 0.000000
0.450000 -0.025000 0.000000
0.450000 0.000000 0.000000
0.475000 -0.075000 0.000000
0.475000 -0.050000 0.000000
0.475000 -0.025000 0.000000
0.475000 0.000000 0.000000
0.500000 -0.075000 0.000000
0.500000 -0.050000 0.000000
0.500000 -0.025000 0.000000
0.500000 0.000000 0.000000
0.525000 -0.075000 0.000000
0.525000 -0.050000 0.000000
0.525000 -0.025000 0.000000
0.525000 0.000000 0.000000
0.550000 -0.075000 0.000000
0.550000 -0.050000 0.000000
0.550000 -0.025000 0.000000
0.550000 0.000000 0.000000
0.575000 -0.075000 0.000000
0.575000 -0.050000 0.000000
0.575000 -0.025000 0.000000
0.575000 0.000000 0.000000
0.600000 -0.075000 0.000000
0.600000 -0.050000 0.000000
0.600000 -0.025000 0.000000
0.600000 0.000000 0.000000
0.625000 -0.075000 0.000000
0.625000 -0.050000 0.000000
0.625000 -0.025000 0.000000
0.625000 0.000000 0.000000
0.650000 -0.075000 0.000000
0.650000 -0.050000 0.000000
0.650000 -0.025000 0.000000
0.650000 0.000000 0.000000
0.675000 -0.075000 0.000000
0.675000 -0.050000 0.000000
0.675000 -0.025000 0.000000
0.675000 0.000000 0.000000
0.700000 -0.075000 0.000000
0.700000 -0.050000 0.000000
0.700000 -0.025000 0.000000
0.700000 0.000000 0.000000
0.725000 -0.075000 0.000000
0.725000 -0.050000 0.000000
0.725000 -0.025000 0.000000
0.725000 0.000000 0.000000
0.750000 -0.075000 0.000000
0.750000 -0.050000 0.000000
0.750000 -0.025000 0.000000
0.750000 0.000000 0.000000
0.775000 -0.075000 0.000000
0.775000 -0.050000 0.000000
0.775000 -0.025000 0.000000
0.775000 0.000000 0.000000
0.800000 -0.075000 0.000000
0.800000 -0.050000 0.000000
0.800000 -0.025000 0.000000
0.800000 0.000000 0.000000
0.825000 -0.075000 0.000000
0.825000 -0.050000 0.000000
0.825000 -0.025000 0.000000
0.825000 0.000000 0.000000
0.850000 -0.075000 0.000000
0.850000 -0.050000 0.000000
0.850000 -0.025000 0.000000
0.850000 0.000000 0.000000
0.875000 -0.075000 0.000000
0.875000 -0.050000 0.000000
0.875000 -0.025000 0.000000
0.875000 0.000000 0.000000
0.900000 -0.075000 0.000000
0.900000 -0.050000 0.000000
0.900000 -0.025000 0.000000
0.900000 0.000000 0.000000
0.925000 -0.075000 0.000000
0.925000 -0.050000 0.000000
0.925000 -0.025000 0.000000
0.925000 0.000000 0.000000
0.950000 -0.075000 0.000000
0.950000 -0.050000 0.000000
0.950000 -0.025000 0.000000
0.950000 0.000000 0.000000
0.975000 -0.075000 0.000000
0.975000 -0.050000 0.000000
0.975000 -0.025000 0.000000
0.975000 0.000000 0.000000
1.000000 -0.075000 0.000000
1.000000 -0.050000 0.000000
1.000000 -0.025000 0.000000
1.000000 0.000000 0.000000
1.025000 -0.075000 0.000000
1.025000 -0.050000 0.000000
1.025000 -0.025000 0.000000
1.025000 0.000000 0.000000
1.025000 0.025000 0.000000
1.025000 0.050000 0.000000
1.025000 0.075000 0.000000
1.025000 0.100000 0.000000
1.025000 0.125000 0.000000
1.025000 0.150000 0.000000
1.025000 0.175000 0.000000
1.025000 0.200000 0.000000
1.025000 0.225000 0.000000
1.025000 0.250000 0.000000
1.025000 0.275000 0.000000
1.025000 0.300000 0.000000
1.025000 0.325000 0.000000
1.025000 0.350000 0.000000
1.025000 0.375000 0.000000
1.025000 0.400000 0.000000
1.025000 0.425000 0.000000
1.025000 0.450000 0.000000
1.025000 0.475000 0.000000
1.025000 0.500000 0.000000
1.025000 0.525000 0.000000
1.025000 0.550000 0.000000
1.025000 0.575000 0.000000
1.025000 0.600000 0.000000
1.050000 -0.075000 0.000000
1.050000 -0.050000 0.000000
1.050000 -0.025000 0.000000
1.050000 0.000000 0.000000
1.050000 0.025000 0.000000
1.050000 0.050000 0.000000
1.050000 0.075000 0.000000
1.050000 0.100000 0.000000
1.050000 0.125000 0.000000
1.050000 0.150000 0.000000
1.050000 0.175000 0.000000
1.050000 0.200000 0.000000
1.050000 0.225000 0.000000
1.050000 0.250000 0.000000
1.050000 0.275000 0.000000
1.050000 0.300000 0.000000
1.050000 0.325000 0.000000
1.050000 0.350000 0.000000
1.050000 0.375000 0.000000
1.050000 0.400000 0.000000
1.050000 0.425000 0.000000
1.050000 0.450000 0.000000
1.050000 0.475000 0.000000
1.050000 0.500000 0.000000
1.050000 0.525000 0.000000
1.050000 0.550000 0.000000
1.050000 0.575000 0.000000
1.050000 0.600000 0.000000
1.075000 -0.075000 0.000000
1.075000 -0.050000 0.000000
1.075000 -0.025000 0.000000
1.075000 0.000000 0.000000
1.075000 0.025000 0.000000
1.075000 0.050000 0.000000
1.075000 0.075000 0.000000
1.075000 0.100000 0.000000
1.075000 0.125000 0.000000
1.075000 0.150000 0.000000
1.075000 0.175000 0.000000
1.075000 0.200000 0.000000
1.075000 0.225000 0.000000
1.075000 0.250000 0.000000
1.075000 0.275000 0.000000
1.075000 0.300000 0.000000
1.075000 0.325000 0.000000
1.075000 0.350000 0.000000
1.075000 0.375000 0.000000
1.075000 0.400000 0.000000
1.075000 0.425000 0.000000
1.075000 0.450000 0.000000
1.075000 0.475000 0.000000
1.075000 0.500000 0.000000
1.075000 0.525000 0.000000
1.075000 0.550000 0.000000
1.075000 0.575000 0.000000
1.075000 0.600000 0.000000
1.100000 -0.075000 0.000000
1.100000 -0.050000 0.000000
1.100000 -0.025000 0.000000
1.100000 0.000000 0.000000
1.100000 0.025000 0.000000
1.100000 0.050000 0.000000
1.100000 0.075000 0.000000
1.100000 0.100000 0.000000
1.100000 0.125000 0.000000
1.100000 0.150000 0.000000
1.100000 0.175000 0.000000
1.100000 0.200000 0.000000
1.100000 0.225000 0.000000
1.100000 0.250000 0.000000
1.100000 0.275000 0.000000
1.100000 0.300000 0.000000
1.100000 0.325000 0.000000
1.100000 0.350000 0.000000
1.100000 0.375000 0.000000
1.100000 0.400000 0.000000
1.100000 0.425000 0.000000
1.100000 0.450000 0.000000
1.100000 0.475000 0.000000
1.100000 0.500000 0.000000
1.100000 0.525000 0.000000
1.100000 0.550000 0.000000
1.100000 0.575000 0.000000
1.100000 0.600000 0.000000
</DataArray>
</Points>
<PointData>
<DataArray NumberOfComponents='1' type='Int32' Name='ParticleType' format='ascii'>
3
3
3
3
3
3
3
3
3
3
3
3
3
3
3
3
3
3
3
3
3
3
3
3
3
3
2
2
3
3
3
3
3
3
3
3
3
3
3
3
3
3
3
3
3
3
3
3
3
3
3
3
3
3
2
2
3
3
2
2
2
2
2
2
2
2
2
2
2
2
2
2
2
2
2
2
2
2
2
2
2
2
2
2
3
3
2
2
2
2
2
2
2
2
2
2
2
2
2
2
2
2
2
2
2
2
2
2
2
2
2
2
3
3
2
2
0
0
0
0
0
0
0
0
0
0
0
0
0
0
0
0
0
0
0
0
3
3
2
2
0
0
0
0
0
0
0
0
0
0
0
0
0
0
0
0
0
0
0
0
3
3
2
2
0
0
0
0
0
0
0
0
0
0
0
0
0
0
0
0
0
0
0
0
3
3
2
2
0
0
0
0
0
0
0
0
0
0
0
0
0
0
0
0
0
0
0
0
3
3
2
2
0
0
0
0
0
0
0
0
0
0
0
0
0
0
0
0
0
0
0
0
3
3
2
2
0
0
0
0
0
0
0
0
0
0
0
0
0
0
0
0
0
0
0
0
3
3
2
2
0
0
0
0
0
0
0
0
0
0
0
0
0
0
0
0
0
0
0
0
3
3
2
2
0
0
0
0
0
0
0
0
0
0
0
0
0
0
0
0
0
0
0
0
3
3
2
2
0
0
0
0
0
0
0
0
0
0
0
0
0
0
0
0
0
0
0
0
3
3
2
2
0
0
0
0
0
0
0
0
0
0
0
0
0
0
0
0
0
0
0
0
3
3
2
2
3
3
2
2
3
3
2
2
3
3
2
2
3
3
2
2
3
3
2
2
3
3
2
2
3
3
2
2
3
3
2
2
3
3
2
2
3
3
2
2
3
3
2
2
3
3
2
2
3
3
2
2
3
3
2
2
3
3
2
2
3
3
2
2
3
3
2
2
3
3
2
2
3
3
2
2
3
3
2
2
3
3
2
2
3
3
2
2
3
3
2
2
3
3
2
2
3
3
2
2
3
3
2
2
3
3
2
2
3
3
2
2
3
3
2
2
3
3
2
2
2
2
2
2
2
2
2
2
2
2
2
2
2
2
2
2
2
2
2
2
2
2
2
2
3
3
2
2
2
2
2
2
2
2
2
2
2
2
2
2
2
2
2
2
2
2
2
2
2
2
2
2
3
3
3
3
3
3
3
3
3
3
3
3
3
3
3
3
3
3
3
3
3
3
3
3
3
3
2
2
3
3
3
3
3
3
3
3
3
3
3
3
3
3
3
3
3
3
3
3
3
3
3
3
3
3
2
2
</DataArray>
<DataArray NumberOfComponents='1' type='Float32' Name='Velocity' format='ascii'>
0.000000
0.000000
0.000000
0.000000
0.000000
0.000000
0.000000
0.000000
0.000000
0.000000
0.000000
0.000000
0.000000
0.000000
0.000000
0.000000
0.000000
0.000000
0.000000
0.000000
0.000000
0.000000
0.000000
0.000000
0.000000
0.000000
0.000000
0.000000
0.000000
0.000000
0.000000
0.000000
0.000000
0.000000
0.000000
0.000000
0.000000
0.000000
0.000000
0.000000
0.000000
0.000000
0.000000
0.000000
0.000000
0.000000
0.000000
0.000000
0.000000
0.000000
0.000000
0.000000
0.000000
0.000000
0.000000
0.000000
0.000000
0.000000
0.000000
0.000000
0.000000
0.000000
0.000000
0.000000
0.000000
0.000000
0.000000
0.000000
0.000000
0.000000
0.000000
0.000000
0.000000
0.000000
0.000000
0.000000
0.000000
0.000000
0.000000
0.000000
0.000000
0.000000
0.000000
0.000000
0.000000
0.000000
0.000000
0.000000
0.000000
0.000000
0.000000
0.000000
0.000000
0.000000
0.000000
0.000000
0.000000
0.000000
0.000000
0.000000
0.000000
0.000000
0.000000
0.000000
0.000000
0.000000
0.000000
0.000000
0.000000
0.000000
0.000000
0.000000
0.000000
0.000000
0.000000
0.000000
0.258320
0.427806
0.113365
0.118104
0.884889
0.213613
0.953050
0.401037
0.367368
0.139204
0.375917
0.268357
0.463148
0.281379
0.124802
0.114574
0.146617
0.371543
0.419862
0.366725
0.000000
0.000000
0.000000
0.000000
0.542216
0.862594
1.010989
0.634774
0.929410
1.220326
0.557127
1.106233
0.886501
0.835068
0.863374
0.383660
0.098372
0.691818
0.513656
0.361903
0.308340
0.296363
0.240485
0.321712
0.000000
0.000000
0.000000
0.000000
0.405218
0.829154
0.820053
0.621237
1.762938
0.819159
1.010859
0.814205
1.355278
1.065955
0.554113
0.821331
1.309900
0.427052
0.562593
0.368025
0.542728
0.817517
0.432380
0.313038
0.000000
0.000000
0.000000
0.000000
0.707842
0.713351
1.271237
1.071536
0.491339
1.495280
1.392753
1.393465
1.313043
1.230742
1.038351
0.849708
1.037595
1.401050
1.193493
0.587713
0.990321
1.155068
0.710984
0.644166
0.000000
0.000000
0.000000
0.000000
1.380899
1.377440
0.544048
0.461819
1.199932
0.637983
1.931553
1.769754
1.458404
1.511338
1.371815
1.182780
1.381808
1.259682
1.299101
1.162483
1.637336
1.032520
1.533072
0.978801
0.000000
0.000000
0.000000
0.000000
0.796813
0.885817
1.381662
1.516384
0.554357
1.401063
0.582218
0.797160
0.933417
1.188572
0.757832
1.583682
1.357288
1.495362
1.307057
1.114970
1.340009
1.372287
1.367965
0.527613
0.000000
0.000000
0.000000
0.000000
1.114928
0.889741
1.051275
0.477793
0.437489
1.322325
0.139083
0.837755
0.889324
0.386316
1.145634
1.072891
0.815103
1.058856
1.574525
1.490976
1.053424
1.899480
1.333514
1.714179
0.000000
0.000000
0.000000
0.000000
1.020339
0.851185
0.415200
1.158321
0.913526
0.802018
0.764436
0.930893
1.470756
0.337233
1.155853
0.316196
0.787638
0.979970
0.980663
1.152269
1.260911
1.278821
0.915420
1.529871
0.000000
0.000000
0.000000
0.000000
1.287195
1.996384
0.929256
0.371841
1.250735
0.421062
0.487053
0.950494
0.941442
0.516350
0.752232
0.453933
0.926221
0.478078
1.040542
0.853479
0.828062
0.332816
0.796857
1.611030
0.000000
0.000000
0.000000
0.000000
1.266690
1.350284
0.625728
0.630254
1.578695
0.719230
1.321487
1.029731
0.732471
0.459831
0.570034
0.632552
0.530717
1.236061
0.501448
0.756398
1.171892
0.544882
0.730721
1.126255
0.000000
0.000000
0.000000
0.000000
0.000000
0.000000
0.000000
0.000000
0.000000
0.000000
0.000000
0.000000
0.000000
0.000000
0.000000
0.000000
0.000000
0.000000
0.000000
0.000000
0.000000
0.000000
0.000000
0.000000
0.000000
0.000000
0.000000
0.000000
0.000000
0.000000
0.000000
0.000000
0.000000
0.000000
0.000000
0.000000
0.000000
0.000000
0.000000
0.000000
0.000000
0.000000
0.000000
0.000000
0.000000
0.000000
0.000000
0.000000
0.000000
0.000000
0.000000
0.000000
0.000000
0.000000
0.000000
0.000000
0.000000
0.000000
0.000000
0.000000
0.000000
0.000000
0.000000
0.000000
0.000000
0.000000
0.000000
0.000000
0.000000
0.000000
0.000000
0.000000
0.000000
0.000000
0.000000
0.000000
0.000000
0.000000
0.000000
0.000000
0.000000
0.000000
0.000000
0.000000
0.000000
0.000000
0.000000
0.000000
0.000000
0.000000
0.000000
0.000000
0.000000
0.000000
0.000000
0.000000
0.000000
0.000000
0.000000
0.000000
0.000000
0.000000
0.000000
0.000000
0.000000
0.000000
0.000000
0.000000
0.000000
0.000000
0.000000
0.000000
0.000000
0.000000
0.000000
0.000000
0.000000
0.000000
0.000000
0.000000
0.000000
0.000000
0.000000
0.000000
0.000000
0.000000
0.000000
0.000000
0.000000
0.000000
0.000000
0.000000
0.000000
0.000000
0.000000
0.000000
0.000000
0.000000
0.000000
0.000000
0.000000
0.000000
0.000000
0.000000
0.000000
0.000000
0.000000
0.000000
0.000000
0.000000
0.000000
0.000000
0.000000
0.000000
0.000000
0.000000
0.000000
0.000000
0.000000
0.000000
0.000000
0.000000
0.000000
0.000000
0.000000
0.000000
0.000000
0.000000
0.000000
0.000000
0.000000
0.000000
0.000000
0.000000
0.000000
0.000000
0.000000
0.000000
0.000000
0.000000
0.000000
0.000000
0.000000
0.000000
0.000000
0.000000
0.000000
0.000000
0.000000
0.000000
0.000000
0.000000
0.000000
0.000000
0.000000
0.000000
0.000000
0.000000
0.000000
0.000000
0.000000
0.000000
0.000000
0.000000
0.000000
0.000000
0.000000
0.000000
0.000000
0.000000
0.000000
0.000000
0.000000
0.000000
0.000000
0.000000
0.000000
0.000000
0.000000
0.000000
0.000000
0.000000
0.000000
0.000000
0.000000
0.000000
0.000000
0.000000
0.000000
0.000000
0.000000
0.000000
</DataArray>
<DataArray NumberOfComponents='1' type='Float32' Name='pressure' format='ascii'>
0.000000
0.000000
0.000000
0.000000
0.000000
0.000000
0.000000
0.000000
0.000000
0.000000
0.000000
0.000000
0.000000
0.000000
0.000000
0.000000
0.000000
0.000000
0.000000
0.000000
0.000000
0.000000
0.000000
0.000000
0.000000
0.000000
0.000000
0.000000
0.000000
0.000000
0.000000
0.000000
0.000000
0.000000
0.000000
0.000000
0.000000
0.000000
0.000000
0.000000
0.000000
0.000000
0.000000
0.000000
0.000000
0.000000
0.000000
0.000000
0.000000
0.000000
0.000000
0.000000
0.000000
0.000000
0.000000
0.000000
0.000000
0.000000
2118.208496
2142.313721
2902.813965
425.721313
730.459534
0.000000
0.000000
0.000000
0.000000
0.000000
0.000000
0.000000
0.000000
0.000000
0.000000
0.000000
0.000000
0.000000
0.000000
0.000000
0.000000
0.000000
0.000000
0.000000
0.000000
0.000000
0.000000
0.000000
1913.139771
2808.523438
2691.752686
0.000000
1789.482300
0.000000
0.000000
0.000000
0.000000
0.000000
0.000000
0.000000
0.000000
0.000000
0.000000
0.000000
0.000000
0.000000
0.000000
0.000000
0.000000
0.000000
0.000000
0.000000
0.000000
0.000000
0.000000
0.000000
1409.655640
822.795105
264.656281
1936.079834
1899.363037
1325.646118
1071.272339
1524.190430
1478.232178
1061.278320
2550.430908
33.402267
0.000000
0.000000
0.000000
1154.230835
102.493164
1153.411011
1225.104980
0.000000
0.000000
0.000000
0.000000
0.000000
1481.224976
892.012512
1035.547241
0.000000
0.000000
0.000000
734.969482
448.331299
725.901428
0.000000
1186.163940
1476.255371
0.000000
0.000000
1158.482788
0.000000
0.000000
0.000000
816.829834
1328.384033
0.000000
0.000000
0.000000
0.000000
2461.342041
2562.981445
0.000000
1131.563721
824.626831
1573.655640
0.000000
2063.750488
0.000000
0.000000
0.000000
74.226501
1922.236572
0.000000
360.740479
0.000000
0.000000
0.000000
0.000000
0.000000
0.000000
0.000000
0.000000
0.000000
1386.139282
2217.951660
739.022949
0.000000
335.135315
1846.490356
59.114704
272.539032
1111.452759
0.000000
851.903198
0.000000
387.354309
303.117950
0.000000
0.000000
0.000000
232.629471
0.000000
0.000000
0.000000
0.000000
0.000000
0.000000
1516.774048
1302.197144
2466.009033
127.763824
3289.098145
3001.816406
1283.844849
0.000000
997.020264
187.611801
3135.190674
0.000000
0.000000
3035.440430
0.000000
0.000000
0.000000
1742.713379
0.000000
0.000000
0.000000
0.000000
0.000000
0.000000
2128.040771
1865.702148
835.507141
3063.395508
0.000000
0.000000
0.000000
0.000000
0.000000
430.311127
3731.077881
629.505066
1916.480713
377.812805
1813.648438
162.936081
1939.684326
0.000000
0.000000
1133.431763
0.000000
0.000000
0.000000
0.000000
543.910950
73.740799
0.000000
2535.588135
0.000000
1718.144653
494.725708
84.533890
2195.312500
0.000000
0.000000
3187.764648
0.000000
0.000000
298.751648
818.358948
0.000000
0.000000
1968.331787
0.000000
0.000000
0.000000
0.000000
0.000000
1241.393066
1869.427002
0.000000
0.000000
0.000000
0.000000
0.000000
239.939590
0.000000
0.000000
0.000000
0.000000
0.000000
4724.114746
0.000000
1579.148315
0.000000
0.000000
0.000000
1000.131836
1399.409546
1659.597534
0.000000
0.000000
2092.207764
1907.519775
0.000000
0.000000
0.000000
0.000000
0.000000
0.000000
0.000000
0.000000
1770.019653
0.000000
2644.462891
0.000000
0.000000
0.000000
0.000000
0.000000
0.000000
0.000000
0.000000
0.000000
0.000000
0.000000
2635.457764
1524.750488
0.000000
0.000000
0.000000
0.000000
0.000000
0.000000
0.000000
0.000000
0.000000
0.000000
0.000000
0.000000
0.000000
0.000000
0.000000
0.000000
0.000000
0.000000
0.000000
299.984436
0.000000
0.000000
1919.928833
512.091248
0.000000
0.000000
1422.980225
0.000000
0.000000
0.000000
3195.798096
1728.514160
0.000000
0.000000
3892.505127
2994.674805
0.000000
0.000000
1817.551636
1404.009399
0.000000
0.000000
1415.503418
1766.137207
0.000000
0.000000
1372.904297
798.385193
0.000000
0.000000
0.000000
0.000000
0.000000
0.000000
0.000000
0.000000
0.000000
0.000000
0.000000
0.000000
0.000000
0.000000
2129.184570
460.347443
0.000000
0.000000
1072.241821
0.000000
0.000000
0.000000
1703.083374
1940.001465
0.000000
0.000000
603.734253
993.878845
0.000000
0.000000
596.947693
0.000000
0.000000
0.000000
2295.864746
143.307236
0.000000
0.000000
1042.517456
0.000000
0.000000
0.000000
1961.707031
0.000000
0.000000
0.000000
4038.691650
5189.351074
0.000000
0.000000
1878.563232
1073.801514
0.000000
0.000000
2949.349365
2404.731689
0.000000
0.000000
1696.859863
919.713013
0.000000
0.000000
1820.058105
2449.453369
0.000000
0.000000
1985.223267
2378.203857
0.000000
0.000000
2587.059570
2523.323242
0.000000
0.000000
2448.158203
1467.648193
0.000000
0.000000
1576.925537
913.200867
0.000000
0.000000
2986.143799
3684.248291
0.000000
0.000000
3873.839111
5002.572266
0.000000
0.000000
3147.272949
1789.586182
0.000000
0.000000
1562.560303
0.000000
0.000000
4084.923340
381.925659
0.000000
0.000000
0.000000
0.000000
0.000000
813.288391
1428.181152
0.000000
0.000000
0.000000
0.000000
0.000000
0.000000
0.000000
0.000000
0.000000
0.000000
0.000000
0.000000
0.000000
0.000000
0.000000
0.000000
1133.650146
1090.128296
937.908997
2753.966064
1531.342896
337.359619
0.000000
0.000000
0.000000
1470.926514
3075.860107
4448.725586
84.995132
0.000000
0.000000
521.164368
0.000000
0.000000
0.000000
0.000000
0.000000
0.000000
0.000000
0.000000
0.000000
0.000000
0.000000
0.000000
0.000000
0.000000
0.000000
0.000000
0.000000
0.000000
0.000000
0.000000
0.000000
0.000000
0.000000
0.000000
0.000000
0.000000
0.000000
0.000000
0.000000
0.000000
0.000000
0.000000
0.000000
0.000000
0.000000
0.000000
0.000000
0.000000
0.000000
0.000000
0.000000
0.000000
0.000000
0.000000
0.000000
0.000000
0.000000
0.000000
0.000000
0.000000
0.000000
0.000000
0.000000
0.000000
0.000000
0.000000
0.000000
0.000000
0.000000
0.000000
0.000000
0.000000
0.000000
0.000000
0.000000
0.000000
</DataArray>
</PointData>
<Cells>
<DataArray type='Int32' Name='connectivity' format='ascii'>
0
1
2
3
4
5
6
7
8
9
10
11
12
13
14
15
16
17
18
19
20
21
22
23
24
25
26
27
28
29
30
31
32
33
34
35
36
37
38
39
40
41
42
43
44
45
46
47
48
49
50
51
52
53
54
55
56
57
58
59
60
61
62
63
64
65
66
67
68
69
70
71
72
73
74
75
76
77
78
79
80
81
82
83
84
85
86
87
88
89
90
91
92
93
94
95
96
97
98
99
100
101
102
103
104
105
106
107
108
109
110
111
112
113
114
115
116
117
118
119
120
121
122
123
124
125
126
127
128
129
130
131
132
133
134
135
136
137
138
139
140
141
142
143
144
145
146
147
148
149
150
151
152
153
154
155
156
157
158
159
160
161
162
163
164
165
166
167
168
169
170
171
172
173
174
175
176
177
178
179
180
181
182
183
184
185
186
187
188
189
190
191
192
193
194
195
196
197
198
199
200
201
202
203
204
205
206
207
208
209
210
211
212
213
214
215
216
217
218
219
220
221
222
223
224
225
226
227
228
229
230
231
232
233
234
235
236
237
238
239
240
241
242
243
244
245
246
247
248
249
250
251
252
253
254
255
256
257
258
259
260
261
262
263
264
265
266
267
268
269
270
271
272
273
274
275
276
277
278
279
280
281
282
283
284
285
286
287
288
289
290
291
292
293
294
295
296
297
298
299
300
301
302
303
304
305
306
307
308
309
310
311
312
313
314
315
316
317
318
319
320
321