<?xml version='1.0' encoding='UTF-8'?>
<VTKFile xmlns='VTK' byte_order='LittleEndian' version='0.1' type='UnstructuredGrid'>
<UnstructuredGrid>
<Piece NumberOfCells='584' NumberOfPoints='584'>
<Points>
<DataArray NumberOfComponents='3' type='Float32' Name='Position' format='ascii'>
-0.075000 -0.075000 0.000000
-0.075000 -0.050000 0.000000
-0.075000 -0.025000 0.000000
-0.075000 0.000000 0.000000
-0.075000 0.025000 0.000000
-0.075000 0.050000 0.000000
-0.075000 0.075000 0.000000
-0.075000 0.100000 0.000000
-0.075000 0.125000 0.000000
-0.075000 0.150000 0.000000
-0.075000 0.175000 0.000000
-0.075000 0.200000 0.000000
-0.075000 0.225000 0.000000
-0.075000 0.250000 0.000000
-0.075000 0.275000 0.000000
-0.075000 0.300000 0.000000
-0.075000 0.325000 0.000000
-0.075000 0.350000 0.000000
-0.075000 0.375000 0.000000
-0.075000 0.400000 0.000000
-0.075000 0.425000 0.000000
-0.075000 0.450000 0.000000
-0.075000 0.475000 0.000000
-0.075000 0.500000 0.000000
-0.075000 0.525000 0.000000
-0.075000 0.550000 0.000000
-0.075000 0.575000 0.000000
-0.075000 0.600000 0.000000
-0.050000 -0.075000 0.000000
-0.050000 -0.050000 0.000000
-0.050000 -0.025000 0.000000
-0.050000 0.000000 0.000000
-0.050000 0.025000 0.000000
-0.050000 0.050000 0.000000
-0.050000 0.075000 0.000000
-0.050000 0.100000 0.000000
-0.050000 0.125000 0.000000
-0.050000 0.150000 0.000000
-0.050000 0.175000 0.000000
-0.050000 0.200000 0.000000
-0.050000 0.225000 0.000000
-0.050000 0.250000 0.000000
-0.050000 0.275000 0.000000
-0.050000 0.300000 0.000000
-0.050000 0.325000 0.000000
-0.050000 0.350000 0.000000
-0.050000 0.375000 0.000000
-0.050000 0.400000 0.000000
-0.050000 0.425000 0.000000
-0.050000 0.450000 0.000000
-0.050000 0.475000 0.000000
-0.050000 0.500000 0.000000
-0.050000 0.525000 0.000000
-0.050000 0.550000 0.000000
-0.050000 0.575000 0.000000
-0.050000 0.600000 0.000000
-0.025000 -0.075000 0.000000
-0.025000 -0.050000 0.000000
-0.025000 -0.025000 0.000000
-0.025000 0.000000 0.000000
-0.025000 0.025000 0.000000
-0.025000 0.050000 0.000000
-0.025000 0.075000 0.000000
-0.025000 0.100000 0.000000
-0.025000 0.125000 0.000000
-0.025000 0.150000 0.000000
-0.025000 0.175000 0.000000
-0.025000 0.200000 0.000000
-0.025000 0.225000 0.000000
-0.025000 0.250000 0.000000
-0.025000 0.275000 0.000000
-0.025000 0.300000 0.000000
-0.025000 0.325000 0.000000
-0.025000 0.350000 0.000000
-0.025000 0.375000 0.000000
-0.025000 0.400000 0.000000
-0.025000 0.425000 0.000000
-0.025000 0.450000 0.000000
-0.025000 0.475000 0.000000
-0.025000 0.500000 0.000000
-0.025000 0.525000 0.000000
-0.025000 0.550000 0.000000
-0.025000 0.575000 0.000000
-0.025000 0.600000 0.000000
0.000000 -0.075000 0.000000
0.000000 -0.050000 0.000000
0.000000 -0.025000 0.000000
0.000000 0.000000 0.000000
0.000000 0.025000 0.000000
0.000000 0.050000 0.000000
0.000000 0.075000 0.000000
0.000000 0.100000 0.000000
0.000000 0.125000 0.000000
0.000000 0.150000 0.000000
0.000000 0.175000 0.000000
0.000000 0.200000 0.000000
0.000000 0.225000 0.000000
0.000000 0.250000 0.000000
0.000000 0.275000 0.000000
0.000000 0.300000 0.000000
0.000000 0.325000 0.000000
0.000000 0.350000 0.000000
0.000000 0.375000 0.000000
0.000000 0.400000 0.000000
0.000000 0.425000 0.000000
0.000000 0.450000 0.000000
0.000000 0.475000 0.000000
0.000000 0.500000 0.000000
0.000000 0.525000 0.000000
0.000000 0.550000 0.000000
0.000000 0.575000 0.000000
0.000000 0.600000 0.000000
0.025000 -0.075000 0.000000
0.025000 -0.050000 0.000000
0.025000 -0.025000 0.000000
0.025000 0.000000 0.000000
0.165709 0.024643 0.000000
0.143398 0.025167 0.000000
0.114732 0.021770 0.000000
0.077647 0.021720 0.000000
0.181755 0.045058 0.000000
0.040682 0.021443 0.000000
0.225018 0.063822 0.000000
0.151166 0.048620 0.000000
0.105347 0.039154 0.000000
0.075496 0.048335 0.000000
0.138688 0.064320 0.000000
0.115579 0.057302 0.000000
0.057539 0.039353 0.000000
0.019903 0.036690 0.000000
0.029332 0.060436 0.000000
0.033607 0.081926 0.000000
0.061223 0.091625 0.000000
0.024579 0.103876 0.000000
0.028997 0.132655 0.000000
0.047141 0.109693 0.000000
0.050000 -0.075000 0.000000
0.050000 -0.050000 0.000000
0.050000 -0.025000 0.000000
0.050000 0.000000 0.000000
0.194489 0.026606 0.000000
0.215387 0.045556 0.000000
0.295307 0.066778 0.000000
0.334703 0.039551 0.000000
0.292627 0.084456 0.000000
0.295098 0.103352 0.000000
0.270585 0.059463 0.000000
0.387416 0.073670 0.000000
0.180034 0.066711 0.000000
0.244024 0.029842 0.000000
0.240046 0.078846 0.000000
0.253051 0.052185 0.000000
0.052186 0.064406 0.000000
0.212425 0.084431 0.000000
0.099512 0.081148 0.000000
0.158139 0.078604 0.000000
0.087303 0.068384 0.000000
0.123003 0.093086 0.000000
0.070092 0.118042 0.000000
0.081371 0.105211 0.000000
0.075000 -0.075000 0.000000
0.075000 -0.050000 0.000000
0.075000 -0.025000 0.000000
0.075000 0.000000 0.000000
0.218824 0.024180 0.000000
0.315991 0.048154 0.000000
0.299646 0.021561 0.000000
0.283285 0.042406 0.000000
0.393937 0.047399 0.000000
0.491245 0.023378 0.000000
0.518659 0.026373 0.000000
0.325122 0.066874 0.000000
0.401893 0.083781 0.000000
0.437527 0.097258 0.000000
0.353669 0.067602 0.000000
0.246291 0.099192 0.000000
0.214297 0.105878 0.000000
0.195124 0.107033 0.000000
0.178545 0.086069 0.000000
0.140684 0.103176 0.000000
0.169368 0.115058 0.000000
0.251318 0.116101 0.000000
0.223544 0.132531 0.000000
0.115587 0.108009 0.000000
0.100000 -0.075000 0.000000
0.100000 -0.050000 0.000000
0.100000 -0.025000 0.000000
0.100000 0.000000 0.000000
0.367121 0.028916 0.000000
0.344855 0.021508 0.000000
0.462255 0.021315 0.000000
0.641505 0.041907 0.000000
0.267366 0.022690 0.000000
0.564536 0.025022 0.000000
0.565480 0.047399 0.000000
0.540340 0.054494 0.000000
0.488050 0.045951 0.000000
0.512602 0.057711 0.000000
0.369932 0.052135 0.000000
0.394037 0.021423 0.000000
0.412746 0.054565 0.000000
0.421426 0.106472 0.000000
0.342651 0.082259 0.000000
0.188369 0.129747 0.000000
0.376497 0.105705 0.000000
0.349205 0.102763 0.000000
0.294913 0.129290 0.000000
0.265770 0.114602 0.000000
0.125000 -0.075000 0.000000
0.125000 -0.050000 0.000000
0.125000 -0.025000 0.000000
0.125000 0.000000 0.000000
0.682693 0.020116 0.000000
0.538188 0.026193 0.000000
0.863975 0.041857 0.000000
0.839413 0.023108 0.000000
0.841845 0.045496 0.000000
0.430261 0.023963 0.000000
0.619208 0.039417 0.000000
0.668094 0.040157 0.000000
0.635872 0.021361 0.000000
0.544457 0.072152 0.000000
0.662595 0.075516 0.000000
0.595907 0.043014 0.000000
0.489538 0.071735 0.000000
0.392220 0.107240 0.000000
0.343831 0.118112 0.000000
0.438738 0.065845 0.000000
0.562160 0.080665 0.000000
0.311407 0.109378 0.000000
0.451740 0.079484 0.000000
0.299388 0.141463 0.000000
0.150000 -0.075000 0.000000
0.150000 -0.050000 0.000000
0.150000 -0.025000 0.000000
0.150000 0.000000 0.000000
0.939387 0.056592 0.000000
0.876799 0.022399 0.000000
0.944493 0.083005 0.000000
0.907481 0.099188 0.000000
0.929154 0.027002 0.000000
0.932780 0.160282 0.000000
0.816628 0.026903 0.000000
0.891259 0.043128 0.000000
0.795506 0.028650 0.000000
0.773475 0.071776 0.000000
0.773048 0.025762 0.000000
0.590864 0.021745 0.000000
0.702917 0.036424 0.000000
0.738478 0.020732 0.000000
0.587118 0.069442 0.000000
0.503556 0.097957 0.000000
0.466513 0.048060 0.000000
0.512669 0.077987 0.000000
0.469217 0.075408 0.000000
0.433836 0.041332 0.000000
0.175000 -0.075000 0.000000
0.175000 -0.050000 0.000000
0.175000 -0.025000 0.000000
0.175000 0.000000 0.000000
0.900778 0.276130 0.000000
0.960918 0.048547 0.000000
0.996177 0.074562 0.000000
1.001265 0.051304 0.000000
1.000315 0.028132 0.000000
0.961523 0.117833 0.000000
0.978384 0.023204 0.000000
0.977996 0.063900 0.000000
0.934858 0.128450 0.000000
0.953823 0.025054 0.000000
0.875159 0.064229 0.000000
0.918487 0.080744 0.000000
0.793792 0.054911 0.000000
0.735619 0.061600 0.000000
0.675911 0.062141 0.000000
0.825539 0.061343 0.000000
0.742473 0.040541 0.000000
0.612568 0.062591 0.000000
0.569204 0.114902 0.000000
0.581094 0.084620 0.000000
0.200000 -0.075000 0.000000
0.200000 -0.050000 0.000000
0.200000 -0.025000 0.000000
0.200000 0.000000 0.000000
0.930931 0.580558 0.000000
1.004021 0.110742 0.000000
0.954402 0.401598 0.000000
0.987412 0.131041 0.000000
0.956623 0.242669 0.000000
0.969125 0.265896 0.000000
0.962442 0.277886 0.000000
1.005871 0.182783 0.000000
0.985726 0.102906 0.000000
0.933300 0.254593 0.000000
0.990313 0.174426 0.000000
0.907383 0.025743 0.000000
0.966871 0.193894 0.000000
0.918121 0.053517 0.000000
0.750356 0.086425 0.000000
0.822212 0.076535 0.000000
0.873597 0.092870 0.000000
0.770724 0.046770 0.000000
0.721758 0.055468 0.000000
0.650929 0.065595 0.000000
0.225000 -0.075000 0.000000
0.225000 -0.050000 0.000000
0.225000 -0.025000 0.000000
0.225000 0.000000 0.000000
0.990892 0.239824 0.000000
0.975828 0.852491 0.000000
0.982795 0.217672 0.000000
0.913899 0.374209 0.000000
0.927744 0.220757 0.000000
0.925771 0.405794 0.000000
0.968196 0.397555 0.000000
0.992831 0.300378 0.000000
1.001289 0.251801 0.000000
0.978995 0.322226 0.000000
0.987281 0.287581 0.000000
0.949430 0.335015 0.000000
0.882033 0.267869 0.000000
0.914982 0.264349 0.000000
0.972564 0.140206 0.000000
0.971914 0.173306 0.000000
0.950592 0.147604 0.000000
0.897526 0.076870 0.000000
0.801465 0.076349 0.000000
0.697781 0.052858 0.000000
0.250000 -0.075000 0.000000
0.250000 -0.050000 0.000000
0.250000 -0.025000 0.000000
0.250000 0.000000 0.000000
0.991578 0.792235 0.000000
0.918567 0.706538 0.000000
0.937709 0.434883 0.000000
0.960431 0.435547 0.000000
0.875988 0.790348 0.000000
0.994003 0.495343 0.000000
0.871284 0.692185 0.000000
0.927045 0.615563 0.000000
0.848602 0.428475 0.000000
0.977620 0.380229 0.000000
0.911598 0.288692 0.000000
0.931048 0.310767 0.000000
0.958912 0.350855 0.000000
0.820843 0.248832 0.000000
0.930503 0.294710 0.000000
0.916204 0.163113 0.000000
0.969504 0.212442 0.000000
0.965923 0.087820 0.000000
0.939469 0.106729 0.000000
0.864243 0.081865 0.000000
0.275000 -0.075000 0.000000
0.275000 -0.050000 0.000000
0.275000 -0.025000 0.000000
0.275000 0.000000 0.000000
0.300000 -0.075000 0.000000
0.300000 -0.050000 0.000000
0.300000 -0.025000 0.000000
0.300000 0.000000 0.000000
0.325000 -0.075000 0.000000
0.325000 -0.050000 0.000000
0.325000 -0.025000 0.000000
0.325000 0.000000 0.000000
0.350000 -0.075000 0.000000
0.350000 -0.050000 0.000000
0.350000 -0.025000 0.000000
0.350000 0.000000 0.000000
0.375000 -0.075000 0.000000
0.375000 -0.050000 0.000000
0.375000 -0.025000 0.000000
0.375000 0.000000 0.000000
0.400000 -0.075000 0.000000
0.400000 -0.050000 0.000000
0.400000 -0.025000 0.000000
0.400000 0.000000 0.000000
0.425000 -0.075000 0.000000
0.425000 -0.050000 0.000000
0.425000 -0.025000 0.000000
0.425000 0.000000 0.000000
0.450000 -0.075000 0.000000
0.450000 -0.050000 0.000000
0.450000 -0.025000 0.000000
0.450000 0.000000 0.000000
0.475000 -0.075000 0.000000
0.475000 -0.050000 0.000000
0.475000 -0.025000 0.000000
0.475000 0.000000 0.000000
0.500000 -0.075000 0.000000
0.500000 -0.050000 0.000000
0.500000 -0.025000 0.000000
0.500000 0.000000 0.000000
0.525000 -0.075000 0.000000
0.525000 -0.050000 0.000000
0.525000 -0.025000 0.000000
0.525000 0.000000 0.000000
0.550000 -0.075000 0.000000
0.550000 -0.050000 0.000000
0.550000 -0.025000 0.000000
0.550000 0.000000 0.000000
0.575000 -0.075000 0.000000
0.575000 -0.050000 0.000000
0.575000 -0.025000 0.000000
0.575000 0.000000 0.000000
0.600000 -0.075000 0.000000
0.600000 -0.050000 0.000000
0.600000 -0.025000 0.000000
0.600000 0.000000 0.000000
0.625000 -0.075000 0.000000
0.625000 -0.050000 0.000000
0.625000 -0.025000 0.000000
0.625000 0.000000 0.000000
0.650000 -0.075000 0.000000
0.650000 -0.050000 0.000000
0.650000 -0.025000 0.000000
0.650000 0.000000 0.000000
0.675000 -0.075000 0.000000
0.675000 -0.050000 0.000000
0.675000 -0.025000 0.000000
0.675000 0.000000 0.000000
0.700000 -0.075000 0.000000
0.700000 -0.050000 0.000000
0.700000 -0.025000 0.000000
0.700000 0.000000 0.000000
0.725000 -0.075000 0.000000
0.725000 -0.050000 0.000000
0.725000 -0.025000 0.000000
0.725000 0.000000 0.000000
0.750000 -0.075000 0.000000
0.750000 -0.050000 0.000000
0.750000 -0.025000 0.000000
0.750000 0.000000 0.000000
0.775000 -0.075000 0.000000
0.775000 -0.050000 0.000000
0.775000 -0.025000 0.000000
0.775000 0.000000 0.000000
0.800000 -0.075000 0.000000
0.800000 -0.050000 0.000000
0.800000 -0.025000 0.000000
0.800000 0.000000 0.000000
0.825000 -0.075000 0.000000
0.825000 -0.050000 0.000000
0.825000 -0.025000 0.000000
0.825000 0.000000 0.000000
0.850000 -0.075000 0.000000
0.850000 -0.050000 0.000000
0.850000 -0.025000 0.000000
0.850000 0.000000 0.000000
0.875000 -0.075000 0.000000
0.875000 -0.050000 0.000000
0.875000 -0.025000 0.000000
0.875000 0.000000 0.000000
0.900000 -0.075000 0.000000
0.900000 -0.050000 0.000000
0.900000 -0.025000 0.000000
0.900000 0.000000 0.000000
0.925000 -0.075000 0.000000
0.925000 -0.050000 0.000000
0.925000 -0.025000 0.000000
0.925000 0.000000 0.000000
0.950000 -0.075000 0.000000
0.950000 -0.050000 0.000000
0.950000 -0.025000 0.000000
0.950000 0.000000 0.000000
0.975000 -0.075000 0.000000
0.975000 -0.050000 0.000000
0.975000 -0.025000 0.000000
0.975000 0.000000 0.000000
1.000000 -0.075000 0.000000
1.000000 -0.050000 0.000000
1.000000 -0.025000 0.000000
1.000000 0.000000 0.000000
1.025000 -0.075000 0.000000
1.025000 -0.050000 0.000000
1.025000 -0.025000 0.000000
1.025000 0.000000 0.000000
1.025000 0.025000 0.000000
1.025000 0.050000 0.000000
1.025000 0.075000 0.000000
1.025000 0.100000 0.000000
1.025000 0.125000 0.000000
1.025000 0.150000 0.000000
1.025000 0.175000 0.000000
1.025000 0.200000 0.000000
1.025000 0.225000 0.000000
1.025000 0.250000 0.000000
1.025000 0.275000 0.000000
1.025000 0.300000 0.000000
1.025000 0.325000 0.000000
1.025000 0.350000 0.000000
1.025000 0.375000 0.000000
1.025000 0.400000 0.000000
1.025000 0.425000 0.000000
1.025000 0.450000 0.000000
1.025000 0.475000 0.000000
1.025000 0.500000 0.000000
1.025000 0.525000 0.000000
1.025000 0.550000 0.000000
1.025000 0.575000 0.000000
1.025000 0.600000 0.000000
1.050000 -0.075000 0.000000
1.050000 -0.050000 0.000000
1.050000 -0.025000 0.000000
1.050000 0.000000 0.000000
1.050000 0.025000 0.000000
1.050000 0.050000 0.000000
1.050000 0.075000 0.000000
1.050000 0.100000 0.000000
1.050000 0.125000 0.000000
1.050000 0.150000 0.000000
1.050000 0.175000 0.000000
1.050000 0.200000 0.000000
1.050000 0.225000 0.000000
1.050000 0.250000 0.000000
1.050000 0.275000 0.000000
1.050000 0.300000 0.000000
1.050000 0.325000 0.000000
1.050000 0.350000 0.000000
1.050000 0.375000 0.000000
1.050000 0.400000 0.000000
1.050000 0.425000 0.000000
1.050000 0.450000 0.000000
1.050000 0.475000 0.000000
1.050000 0.500000 0.000000
1.050000 0.525000 0.000000
1.050000 0.550000 0.000000
1.050000 0.575000 0.000000
1.050000 0.600000 0.000000
1.075000 -0.075000 0.000000
1.075000 -0.050000 0.000000
1.075000 -0.025000 0.000000
1.075000 0.000000 0.000000
1.075000 0.025000 0.000000
1.075000 0.050000 0.000000
1.075000 0.075000 0.000000
1.075000 0.100000 0.000000
1.075000 0.125000 0.000000
1.075000 0.150000 0.000000
1.075000 0.175000 0.000000
1.075000 0.200000 0.000000
1.075000 0.225000 0.000000
1.075000 0.250000 0.000000
1.075000 0.275000 0.000000
1.075000 0.300000 0.000000
1.075000 0.325000 0.000000
1.075000 0.350000 0.000000
1.075000 0.375000 0.000000
1.075000 0.400000 0.000000
1.075000 0.425000 0.000000
1.075000 0.450000 0.000000
1.075000 0.475000 0.000000
1.075000 0.500000 0.000000
1.075000 0.525000 0.000000
1.075000 0.550000 0.000000
1.075000 0.575000 0.000000
1.075000 0.600000 0.000000
1.100000 -0.075000 0.000000
1.100000 -0.050000 0.000000
1.100000 -0.025000 0.000000
1.100000 0.000000 0.000000
1.100000 0.025000 0.000000
1.100000 0.050000 0.000000
1.100000 0.075000 0.000000
1.100000 0.100000 0.000000
1.100000 0.125000 0.000000
1.100000 0.150000 0.000000
1.100000 0.175000 0.000000
1.100000 0.200000 0.000000
1.100000 0.225000 0.000000
1.100000 0.250000 0.000000
1.100000 0.275000 0.000000
1.100000 0.300000 0.000000
1.100000 0.325000 0.000000
1.100000 0.350000 0.000000
1.100000 0.375000 0.000000
1.100000 0.400000 0.000000
1.100000 0.425000 0.000000
1.100000 0.450000 0.000000
1.100000 0.475000 0.000000
1.100000 0.500000 0.000000
1.100000 0.525000 0.000000
1.100000 0.550000 0.000000
1.100000 0.575000 0.000000
1.100000 0.600000 0.000000
</DataArray>
</Points>
<PointData>
<DataArray NumberOfComponents='1' type='Int32' Name='ParticleType' format='ascii'>
3
3
3
3
3
3
3
3
3
3
3
3
3
3
3
3
3
3
3
3
3
3
3
3
3
3
2
2
3
3
3
3
3
3
3
3
3
3
3
3
3
3
3
3
3
3
3
3
3
3
3
3
3
3
2
2
3
3
2
2
2
2
2
2
2
2
2
2
2
2
2
2
2
2
2
2
2
2
2
2
2
2
2
2
3
3
2
2
2
2
2
2
2
2
2
2
2
2
2
2
2
2
2
2
2
2
2
2
2
2
2
2
3
3
2
2
0
0
0
0
0
0
0
0
0
0
0
0
0
0
0
0
0
0
0
0
3
3
2
2
0
0
0
0
0
0
0
0
0
0
0
0
0
0
0
0
0
0
0
0
3
3
2
2
0
0
0
0
0
0
0
0
0
0
0
0
0
0
0
0
0
0
0
0
3
3
2
2
0
0
0
0
0
0
0
0
0
0
0
0
0
0
0
0
0
0
0
0
3
3
2
2
0
0
0
0
0
0
0
0
0
0
0
0
0
0
0
0
0
0
0
0
3
3
2
2
0
0
0
0
0
0
0
0
0
0
0
0
0
0
0
0
0
0
0
0
3
3
2
2
0
0
0
0
0
0
0
0
0
0
0
0
0
0
0
0
0
0
0
0
3
3
2
2
0
0
0
0
0
0
0
0
0
0
0
0
0
0
0
0
0
0
0
0
3
3
2
2
0
0
0
0
0
0
0
0
0
0
0
0
0
0
0
0
0
0
0
0
3
3
2
2
0
0
0
0
0
0
0
0
0
0
0
0
0
0
0
0
0
0
0
0
3
3
2
2
3
3
2
2
3
3
2
2
3
3
2
2
3
3
2
2
3
3
2
2
3
3
2
2
3
3
2
2
3
3
2
2
3
3
2
2
3
3
2
2
3
3
2
2
3
3
2
2
3
3
2
2
3
3
2
2
3
3
2
2
3
3
2
2
3
3
2
2
3
3
2
2
3
3
2
2
3
3
2
2
3
3
2
2
3
3
2
2
3
3
2
2
3
3
2
2
3
3
2
2
3
3
2
2
3
3
2
2
3
3
2
2
3
3
2
2
3
3
2
2
2
2
2
2
2
2
2
2
2
2
2
2
2
2
2
2
2
2
2
2
2
2
2
2
3
3
2
2
2
2
2
2
2
2
2
2
2
2
2
2
2
2
2
2
2
2
2
2
2
2
2
2
3
3
3
3
3
3
3
3
3
3
3
3
3
3
3
3
3
3
3
3
3
3
3
3
3
3
2
2
3
3
3
3
3
3
3
3
3
3
3
3
3
3
3
3
3
3
3
3
3
3
3
3
3
3
2
2
</DataArray>
<DataArray NumberOfComponents='1' type='Float32' Name='Velocity' format='ascii'>
0.000000
0.000000
0.000000
0.000000
0.000000
0.000000
0.000000
0.000000
0.000000
0.000000
0.000000
0.000000
0.000000
0.000000
0.000000
0.000000
0.000000
0.000000
0.000000
0.000000
0.000000
0.000000
0.000000
0.000000
0.000000
0.000000
0.000000
0.000000
0.000000
0.000000
0.000000
0.000000
0.000000
0.000000
0.000000
0.000000
0.000000
0.000000
0.000000
0.000000
0.000000
0.000000
0.000000
0.000000
0.000000
0.000000
0.000000
0.000000
0.000000
0.000000
0.000000
0.000000
0.000000
0.000000
0.000000
0.000000
0.000000
0.000000
0.000000
0.000000
0.000000
0.000000
0.000000
0.000000
0.000000
0.000000
0.000000
0.000000
0.000000
0.000000
0.000000
0.000000
0.000000
0.000000
0.000000
0.000000
0.000000
0.000000
0.000000
0.000000
0.000000
0.000000
0.000000
0.000000
0.000000
0.000000
0.000000
0.000000
0.000000
0.000000
0.000000
0.000000
0.000000
0.000000
0.000000
0.000000
0.000000
0.000000
0.000000
0.000000
0.000000
0.000000
0.000000
0.000000
0.000000
0.000000
0.000000
0.000000
0.000000
0.000000
0.000000
0.000000
0.000000
0.000000
0.000000
0.000000
0.456059
0.495935
0.382096
0.322831
0.288478
0.048546
0.653817
0.660194
0.454266
0.249908
0.145653
0.333103
0.131400
0.149132
0.143481
0.081337
0.363916
0.145899
0.303080
0.216388
0.000000
0.000000
0.000000
0.000000
0.382979
0.699973
1.166293
0.556071
0.621535
0.720824
0.783993
1.249233
0.791964
0.494975
1.132774
0.859729
0.168229
1.472736
0.230627
0.471637
0.340680
0.789027
0.380321
0.512846
0.000000
0.000000
0.000000
0.000000
0.286244
0.755723
0.675656
0.386980
0.925735
1.387048
1.185922
0.846769
1.146273
1.367858
0.725381
0.466900
0.470803
0.655686
0.916404
0.442789
0.453630
0.839433
0.678318
0.402920
0.000000
0.000000
0.000000
0.000000
0.576684
0.721945
0.878208
1.494140
0.474215
1.108573
1.262592
1.281923
1.415635
1.330862
0.764852
0.327498
0.931992
1.226277
0.918852
0.729651
1.194617
1.169217
0.587065
0.932445
0.000000
0.000000
0.000000
0.000000
1.547221
1.275664
1.649620
1.604686
1.850708
0.925519
1.672173
1.834360
1.408835
1.461196
1.536367
1.490750
1.345666
1.415763
0.773857
1.152313
1.764565
1.044521
1.150486
0.739926
0.000000
0.000000
0.000000
0.000000
0.914839
1.546305
1.470730
2.073390
0.928338
1.945951
1.867724
1.182363
1.739029
1.603464
1.927091
1.451957
1.808753
1.759523
1.311865
1.334926
1.008628
1.364608
1.056096
0.877590
0.000000
0.000000
0.000000
0.000000
1.649850
0.599715
1.393105
0.694888
0.745688
1.712818
0.415595
0.778531
1.386499
1.069862
1.712049
1.312521
2.105214
1.689233
1.492791
1.813872
2.074938
1.722545
1.492730
1.446937
0.000000
0.000000
0.000000
0.000000
1.970960
1.227390
1.367183
1.606298
1.437062
1.641451
1.570058
2.035180
0.627931
1.461891
1.612926
1.278833
2.245870
1.397282
1.625768
1.735113
1.913629
2.026048
1.848511
1.667294
0.000000
0.000000
0.000000
0.000000
1.550295
2.976010
1.381334
0.947178
1.819754
1.131001
1.451033
1.529204
1.127925
1.450119
1.466635
1.245053
1.343366
1.532699
1.810287
2.092594
1.754268
1.784060
1.655292
1.701959
0.000000
0.000000
0.000000
0.000000
2.244811
2.306554
1.471340
1.568799
2.498353
1.662188
2.239592
1.942724
1.287177
1.423336
0.762961
1.023137
1.456812
1.076816
0.915571
0.685579
1.634710
0.980924
1.171412
2.059763
0.000000
0.000000
0.000000
0.000000
0.000000
0.000000
0.000000
0.000000
0.000000
0.000000
0.000000
0.000000
0.000000
0.000000
0.000000
0.000000
0.000000
0.000000
0.000000
0.000000
0.000000
0.000000
0.000000
0.000000
0.000000
0.000000
0.000000
0.000000
0.000000
0.000000
0.000000
0.000000
0.000000
0.000000
0.000000
0.000000
0.000000
0.000000
0.000000
0.000000
0.000000
0.000000
0.000000
0.000000
0.000000
0.000000
0.000000
0.000000
0.000000
0.000000
0.000000
0.000000
0.000000
0.000000
0.000000
0.000000
0.000000
0.000000
0.000000
0.000000
0.000000
0.000000
0.000000
0.000000
0.000000
0.000000
0.000000
0.000000
0.000000
0.000000
0.000000
0.000000
0.000000
0.000000
0.000000
0.000000
0.000000
0.000000
0.000000
0.000000
0.000000
0.000000
0.000000
0.000000
0.000000
0.000000
0.000000
0.000000
0.000000
0.000000
0.000000
0.000000
0.000000
0.000000
0.000000
0.000000
0.000000
0.000000
0.000000
0.000000
0.000000
0.000000
0.000000
0.000000
0.000000
0.000000
0.000000
0.000000
0.000000
0.000000
0.000000
0.000000
0.000000
0.000000
0.000000
0.000000
0.000000
0.000000
0.000000
0.000000
0.000000
0.000000
0.000000
0.000000
0.000000
0.000000
0.000000
0.000000
0.000000
0.000000
0.000000
0.000000
0.000000
0.000000
0.000000
0.000000
0.000000
0.000000
0.000000
0.000000
0.000000
0.000000
0.000000
0.000000
0.000000
0.000000
0.000000
0.000000
0.000000
0.000000
0.000000
0.000000
0.000000
0.000000
0.000000
0.000000
0.000000
0.000000
0.000000
0.000000
0.000000
0.000000
0.000000
0.000000
0.000000
0.000000
0.000000
0.000000
0.000000
0.000000
0.000000
0.000000
0.000000
0.000000
0.000000
0.000000
0.000000
0.000000
0.000000
0.000000
0.000000
0.000000
0.000000
0.000000
0.000000
0.000000
0.000000
0.000000
0.000000
0.000000
0.000000
0.000000
0.000000
0.000000
0.000000
0.000000
0.000000
0.000000
0.000000
0.000000
0.000000
0.000000
0.000000
0.000000
0.000000
0.000000
0.000000
0.000000
0.000000
0.000000
0.000000
0.000000
0.000000
0.000000
0.000000
0.000000
0.000000
0.000000
0.000000
0.000000
0.000000
0.000000
0.000000
0.000000
0.000000
0.000000
0.000000
0.000000
0.000000
0.000000
0.000000
0.000000
</DataArray>
<DataArray NumberOfComponents='1' type='Float32' Name='pressure' format='ascii'>
0.000000
0.000000
0.000000
0.000000
0.000000
0.000000
0.000000
0.000000
0.000000
0.000000
0.000000
0.000000
0.000000
0.000000
0.000000
0.000000
0.000000
0.000000
0.000000
0.000000
0.000000
0.000000
0.000000
0.000000
0.000000
0.000000
0.000000
0.000000
0.000000
0.000000
0.000000
0.000000
0.000000
0.000000
0.000000
0.000000
0.000000
0.000000
0.000000
0.000000
0.000000
0.000000
0.000000
0.000000
0.000000
0.000000
0.000000
0.000000
0.000000
0.000000
0.000000
0.000000
0.000000
0.000000
0.000000
0.000000
0.000000
0.000000
853.886658
928.713318
2215.422852
1682.836548
0.000000
0.000000
0.000000
0.000000
0.000000
0.000000
0.000000
0.000000
0.000000
0.000000
0.000000
0.000000
0.000000
0.000000
0.000000
0.000000
0.000000
0.000000
0.000000
0.000000
0.000000
0.000000
0.000000
0.000000
869.945007
0.000000
1427.828735
0.000000
0.000000
0.000000
0.000000
0.000000
0.000000
0.000000
0.000000
0.000000
0.000000
0.000000
0.000000
0.000000
0.000000
0.000000
0.000000
0.000000
0.000000
0.000000
0.000000
0.000000
0.000000
0.000000
0.000000
0.000000
1556.765747
0.000000
989.675659
475.944397
968.815796
0.000000
1007.995300
0.000000
1092.660034
1138.437622
1439.686646
1223.964111
436.608643
0.000000
1756.689819
443.415802
0.000000
0.000000
0.000000
0.000000
0.000000
0.000000
0.000000
0.000000
2743.932373
1770.333374
252.260010
84.739876
1391.061646
429.140594
0.000000
2233.230957
1517.440430
0.000000
1539.272461
0.000000
0.000000
1375.001465
0.000000
0.000000
916.851929
0.000000
712.482056
976.649292
0.000000
0.000000
0.000000
0.000000
3346.178467
2859.039062
1940.788208
0.000000
0.000000
2075.326172
562.230164
0.000000
0.000000
0.000000
0.000000
0.000000
934.195618
468.488922
276.306519
0.000000
2006.689087
0.000000
0.000000
0.000000
0.000000
0.000000
0.000000
0.000000
2717.938477
1054.932251
0.000000
1463.874390
0.000000
1337.743164
684.249390
0.000000
0.000000
638.915283
2197.111816
1196.729370
0.000000
0.000000
0.000000
0.000000
0.000000
0.000000
0.000000
0.000000
0.000000
0.000000
0.000000
0.000000
2551.194580
2140.014160
0.000000
0.000000
1127.981689
2619.652588
0.000000
0.000000
767.645813
983.808289
598.696045
0.000000
0.000000
615.135437
858.287842
0.000000
0.000000
0.000000
0.000000
0.000000
2389.527588
0.000000
0.000000
0.000000
1245.264160
1749.607056
1824.483521
1471.917358
2238.421631
0.000000
1427.600342
0.000000
1031.820435
1056.084839
2285.792725
0.000000
1769.552124
1048.565063
1345.650146
0.000000
0.000000
0.000000
0.000000
0.000000
1319.963135
0.000000
0.000000
0.000000
510.353790
328.950714
182.087952
1265.032837
0.000000
3004.592529
4565.488281
2770.245605
2738.782227
2159.656982
0.000000
2138.358398
2185.792969
1946.990234
379.317657
0.000000
0.000000
1049.787964
844.155334
0.000000
0.000000
0.000000
0.000000
0.000000
0.000000
0.000000
0.000000
1984.418335
0.000000
0.000000
0.000000
0.000000
0.000000
0.000000
3202.079346
0.000000
746.733459
1841.056396
0.000000
975.058960
0.000000
0.000000
0.000000
570.670837
0.000000
0.000000
0.000000
0.000000
522.806396
311.357635
0.000000
0.000000
365.177155
0.000000
0.000000
0.000000
0.000000
0.000000
0.000000
0.000000
0.000000
0.000000
0.000000
0.000000
142.950623
0.000000
0.000000
2031.363770
0.000000
0.000000
0.000000
0.000000
459.446075
0.000000
0.000000
0.000000
0.000000
0.000000
0.000000
0.000000
0.000000
0.000000
0.000000
0.000000
0.000000
0.000000
0.000000
0.000000
0.000000
0.000000
14.342974
229.872955
0.000000
0.000000
0.000000
0.000000
1572.317017
2054.333252
0.000000
0.000000
2181.572510
0.000000
0.000000
0.000000
843.252136
0.000000
0.000000
0.000000
1958.618896
2019.491089
0.000000
0.000000
444.574005
0.000000
0.000000
0.000000
1269.450806
0.000000
0.000000
0.000000
617.573975
0.000000
0.000000
0.000000
1635.005615
829.445923
0.000000
0.000000
2421.911133
1829.189575
0.000000
0.000000
1470.354736
1622.557861
0.000000
0.000000
318.540283
785.289612
0.000000
0.000000
252.273834
598.901367
0.000000
0.000000
1821.031372
2164.369873
0.000000
0.000000
2055.206055
790.284973
0.000000
0.000000
1851.831543
0.000000
0.000000
0.000000
1477.077026
0.000000
0.000000
0.000000
2389.283447
0.000000
0.000000
0.000000
1324.182739
0.000000
0.000000
0.000000
1155.934326
0.000000
0.000000
0.000000
854.952393
0.000000
0.000000
0.000000
0.000000
0.000000
0.000000
0.000000
0.000000
0.000000
0.000000
0.000000
760.911743
1343.667236
0.000000
0.000000
1756.988403
1556.875000
0.000000
0.000000
2555.592529
2470.765869
0.000000
0.000000
1027.868164
1230.421021
0.000000
0.000000
731.996765
0.000000
0.000000
0.000000
1886.471558
2365.908936
0.000000
0.000000
2990.782715
4183.315430
0.000000
0.000000
1711.231812
1756.996094
0.000000
0.000000
2369.031006
1808.562012
3871.775391
4051.719482
0.000000
0.000000
0.000000
0.000000
0.000000
0.000000
0.000000
0.000000
0.000000
0.000000
0.000000
0.000000
0.000000
0.000000
0.000000
0.000000
0.000000
0.000000
0.000000
0.000000
0.000000
0.000000
0.000000
0.000000
2414.922363
2637.815674
2894.718018
2830.011963
827.260864
1874.830444
1303.306641
0.000000
2517.779053
1401.408325
0.000000
148.766754
0.000000
0.000000
0.000000
0.000000
0.000000
0.000000
0.000000
0.000000
0.000000
0.000000
0.000000
0.000000
0.000000
0.000000
0.000000
0.000000
0.000000
0.000000
0.000000
0.000000
0.000000
0.000000
0.000000
0.000000
0.000000
0.000000
0.000000
0.000000
0.000000
0.000000
0.000000
0.000000
0.000000
0.000000
0.000000
0.000000
0.000000
0.000000
0.000000
0.000000
0.000000
0.000000
0.000000
0.000000
0.000000
0.000000
0.000000
0.000000
0.000000
0.000000
0.000000
0.000000
0.000000
0.000000
0.000000
0.000000
0.000000
0.000000
0.000000
0.000000
0.000000
0.000000
0.000000
0.000000
0.000000
0.000000
0.000000
0.000000
0.000000
0.000000
</DataArray>
</PointData>
<Cells>
<DataArray type='Int32' Name='connectivity' format='ascii'>
0
1
2
3
4
5
6
7
8
9
10
11
12
13
14
15
16
17
18
19
20
21
22
23
24
25
26
27
28
29
30
31
32
33
34
35
36
37
38
39
40
41
42
43
44
45
46
47
48
49
50
51
52
53
54
55
56
57
58
59
60
61
62
63
64
65
66
67
68
69
70
71
72
73
74
75
76
77
78
79
80
81
82
83
84
85
86
87
88
89
90
91
92
93
94
95
96
97
98
99
100
101
102
103
104
105
106
107
108
109
110
111
112
113
114
115
116
117
118
119
120
121
122
123
124
125
126
127
128
129
130
131
132
133
134
135
136
137
138
139
140
141
142
143
144
145
146
147
148
149
150
151
152
153
154
155
156
157
158
159
160
161
162
163
164
165
166
167
168
169
170
171
172
173
174
175
176
177
178
179
180
181
182
183
184
185
186
187
188
189
190
191
192
193
194
195
196
197
198
199
200
201
202
203
204
205
206
207
208
209
210
211
212
213
214
215
216
217
218
219
220
221
222
223
224
225
226
227
228
229
230
231
232
233
234
235
236
237
238
239
240
241
242
243
244
245
246
247
248
249
250
251
252
253
254
255
256
257
258
259
260
261
262
263
264
265
266
267
268
269
270
271
272
273
274
275
276
277
278
279
280
281
282
283
284
285
286
287
288
289
290
291
292
293
294
295
296
297
298
299
300
301
302
303
304
305
306
307
308
309
310
311
312
313
314
315
316
317
318
319
320
321
322
323
324
325
326
327
328
329
330
331
332