<?xml version='1.0' encoding='UTF-8'?>
<VTKFile xmlns='VTK' byte_order='LittleEndian' version='0.1' type='UnstructuredGrid'>
<UnstructuredGrid>
<Piece NumberOfCells='584' NumberOfPoints='584'>
<Points>
<DataArray NumberOfComponents='3' type='Float32' Name='Position' format='ascii'>
-0.075000 -0.075000 0.000000
-0.075000 -0.050000 0.000000
-0.075000 -0.025000 0.000000
-0.075000 0.000000 0.000000
-0.075000 0.025000 0.000000
-0.075000 0.050000 0.000000
-0.075000 0.075000 0.000000
-0.075000 0.100000 0.000000
-0.075000 0.125000 0.000000
-0.075000 0.150000 0.000000
-0.075000 0.175000 0.000000
-0.075000 0.200000 0.000000
-0.075000 0.225000 0.000000
-0.075000 0.250000 0.000000
-0.075000 0.275000 0.000000
-0.075000 0.300000 0.000000
-0.075000 0.325000 0.000000
-0.075000 0.350000 0.000000
-0.075000 0.375000 0.000000
-0.075000 0.400000 0.000000
-0.075000 0.425000 0.000000
-0.075000 0.450000 0.000000
-0.075000 0.475000 0.000000
-0.075000 0.500000 0.000000
-0.075000 0.525000 0.000000
-0.075000 0.550000 0.000000
-0.075000 0.575000 0.000000
-0.075000 0.600000 0.000000
-0.050000 -0.075000 0.000000
-0.050000 -0.050000 0.000000
-0.050000 -0.025000 0.000000
-0.050000 0.000000 0.000000
-0.050000 0.025000 0.000000
-0.050000 0.050000 0.000000
-0.050000 0.075000 0.000000
-0.050000 0.100000 0.000000
-0.050000 0.125000 0.000000
-0.050000 0.150000 0.000000
-0.050000 0.175000 0.000000
-0.050000 0.200000 0.000000
-0.050000 0.225000 0.000000
-0.050000 0.250000 0.000000
-0.050000 0.275000 0.000000
-0.050000 0.300000 0.000000
-0.050000 0.325000 0.000000
-0.050000 0.350000 0.000000
-0.050000 0.375000 0.000000
-0.050000 0.400000 0.000000
-0.050000 0.425000 0.000000
-0.050000 0.450000 0.000000
-0.050000 0.475000 0.000000
-0.050000 0.500000 0.000000
-0.050000 0.525000 0.000000
-0.050000 0.550000 0.000000
-0.050000 0.575000 0.000000
-0.050000 0.600000 0.000000
-0.025000 -0.075000 0.000000
-0.025000 -0.050000 0.000000
-0.025000 -0.025000 0.000000
-0.025000 0.000000 0.000000
-0.025000 0.025000 0.000000
-0.025000 0.050000 0.000000
-0.025000 0.075000 0.000000
-0.025000 0.100000 0.000000
-0.025000 0.125000 0.000000
-0.025000 0.150000 0.000000
-0.025000 0.175000 0.000000
-0.025000 0.200000 0.000000
-0.025000 0.225000 0.000000
-0.025000 0.250000 0.000000
-0.025000 0.275000 0.000000
-0.025000 0.300000 0.000000
-0.025000 0.325000 0.000000
-0.025000 0.350000 0.000000
-0.025000 0.375000 0.000000
-0.025000 0.400000 0.000000
-0.025000 0.425000 0.000000
-0.025000 0.450000 0.000000
-0.025000 0.475000 0.000000
-0.025000 0.500000 0.000000
-0.025000 0.525000 0.000000
-0.025000 0.550000 0.000000
-0.025000 0.575000 0.000000
-0.025000 0.600000 0.000000
0.000000 -0.075000 0.000000
0.000000 -0.050000 0.000000
0.000000 -0.025000 0.000000
0.000000 0.000000 0.000000
0.000000 0.025000 0.000000
0.000000 0.050000 0.000000
0.000000 0.075000 0.000000
0.000000 0.100000 0.000000
0.000000 0.125000 0.000000
0.000000 0.150000 0.000000
0.000000 0.175000 0.000000
0.000000 0.200000 0.000000
0.000000 0.225000 0.000000
0.000000 0.250000 0.000000
0.000000 0.275000 0.000000
0.000000 0.300000 0.000000
0.000000 0.325000 0.000000
0.000000 0.350000 0.000000
0.000000 0.375000 0.000000
0.000000 0.400000 0.000000
0.000000 0.425000 0.000000
0.000000 0.450000 0.000000
0.000000 0.475000 0.000000
0.000000 0.500000 0.000000
0.000000 0.525000 0.000000
0.000000 0.550000 0.000000
0.000000 0.575000 0.000000
0.000000 0.600000 0.000000
0.025000 -0.075000 0.000000
0.025000 -0.050000 0.000000
0.025000 -0.025000 0.000000
0.025000 0.000000 0.000000
0.197374 0.054050 0.000000
0.141174 0.155928 0.000000
0.176338 0.040221 0.000000
0.194236 0.020422 0.000000
0.217022 0.047119 0.000000
0.125216 0.091747 0.000000
0.300867 0.024402 0.000000
0.209814 0.075908 0.000000
0.173275 0.104997 0.000000
0.139299 0.228438 0.000000
0.226294 0.024309 0.000000
0.097997 0.123352 0.000000
0.159620 0.023171 0.000000
0.118509 0.021292 0.000000
0.134855 0.133853 0.000000
0.070998 0.051593 0.000000
0.022598 0.161785 0.000000
0.080175 0.022141 0.000000
0.024254 0.127688 0.000000
0.170398 0.062159 0.000000
0.050000 -0.075000 0.000000
0.050000 -0.050000 0.000000
0.050000 -0.025000 0.000000
0.050000 0.000000 0.000000
0.096399 0.193173 0.000000
0.068444 0.131981 0.000000
0.078669 0.183484 0.000000
0.022780 0.024452 0.000000
0.024830 0.104282 0.000000
0.421275 0.066796 0.000000
0.199032 0.132892 0.000000
0.565663 0.027296 0.000000
0.095080 0.158285 0.000000
0.200261 0.227915 0.000000
0.108911 0.077564 0.000000
0.217771 0.130863 0.000000
0.020872 0.216117 0.000000
0.186590 0.257758 0.000000
0.123058 0.047409 0.000000
0.042690 0.042549 0.000000
0.192978 0.109603 0.000000
0.239162 0.101833 0.000000
0.106822 0.231871 0.000000
0.092331 0.060340 0.000000
0.075000 -0.075000 0.000000
0.075000 -0.050000 0.000000
0.075000 -0.025000 0.000000
0.075000 0.000000 0.000000
0.115567 0.110421 0.000000
0.157933 0.127928 0.000000
0.387304 0.058957 0.000000
0.329851 0.025215 0.000000
0.390925 0.094701 0.000000
0.607880 0.073168 0.000000
0.586830 0.090598 0.000000
0.055211 0.110592 0.000000
0.288562 0.118412 0.000000
0.561188 0.062049 0.000000
0.416046 0.021965 0.000000
0.082295 0.106274 0.000000
0.220007 0.098068 0.000000
0.225958 0.156060 0.000000
0.257996 0.082044 0.000000
0.056325 0.087548 0.000000
0.148152 0.103177 0.000000
0.051148 0.065256 0.000000
0.155365 0.081110 0.000000
0.144369 0.038893 0.000000
0.100000 -0.075000 0.000000
0.100000 -0.050000 0.000000
0.100000 -0.025000 0.000000
0.100000 0.000000 0.000000
0.468382 0.029556 0.000000
0.288565 0.180936 0.000000
0.482495 0.072701 0.000000
0.778151 0.028873 0.000000
0.239851 0.072102 0.000000
0.705950 0.025534 0.000000
0.546476 0.084897 0.000000
0.244357 0.049701 0.000000
0.650611 0.028196 0.000000
0.656790 0.050454 0.000000
0.444671 0.025435 0.000000
0.290937 0.146854 0.000000
0.498942 0.063642 0.000000
0.612818 0.039962 0.000000
0.063932 0.209073 0.000000
0.248518 0.029574 0.000000
0.507212 0.036040 0.000000
0.276873 0.065222 0.000000
0.306285 0.101090 0.000000
0.137664 0.207074 0.000000
0.125000 -0.075000 0.000000
0.125000 -0.050000 0.000000
0.125000 -0.025000 0.000000
0.125000 0.000000 0.000000
0.679921 0.046189 0.000000
0.627336 0.061162 0.000000
0.983948 0.060271 0.000000
0.830803 0.027673 0.000000
0.516278 0.072924 0.000000
0.597807 0.023500 0.000000
0.117342 0.212540 0.000000
0.429942 0.043259 0.000000
0.762445 0.076859 0.000000
0.723094 0.060596 0.000000
0.832771 0.064996 0.000000
0.462802 0.050311 0.000000
0.489581 0.021464 0.000000
0.360749 0.143097 0.000000
0.382655 0.023565 0.000000
0.370186 0.124839 0.000000
0.215948 0.174170 0.000000
0.138485 0.063998 0.000000
0.388878 0.129990 0.000000
0.078081 0.151818 0.000000
0.150000 -0.075000 0.000000
0.150000 -0.050000 0.000000
0.150000 -0.025000 0.000000
0.150000 0.000000 0.000000
0.171960 0.180976 0.000000
0.964383 0.021272 0.000000
0.659000 0.074343 0.000000
0.282660 0.043998 0.000000
0.883329 0.024633 0.000000
0.188405 0.082528 0.000000
0.900231 0.052796 0.000000
0.426042 0.105209 0.000000
0.945235 0.062686 0.000000
0.468046 0.113096 0.000000
0.925861 0.038384 0.000000
0.680416 0.021994 0.000000
0.837032 0.077167 0.000000
0.804241 0.082542 0.000000
0.752404 0.022670 0.000000
0.590054 0.065660 0.000000
0.630192 0.024045 0.000000
0.615731 0.100889 0.000000
0.641817 0.076263 0.000000
0.247442 0.154694 0.000000
0.175000 -0.075000 0.000000
0.175000 -0.050000 0.000000
0.175000 -0.025000 0.000000
0.175000 0.000000 0.000000
0.116288 0.142572 0.000000
0.524921 0.097768 0.000000
0.877177 0.047120 0.000000
0.774403 0.066911 0.000000
1.000238 0.023742 0.000000
0.160835 0.190011 0.000000
0.857442 0.023490 0.000000
0.342953 0.049267 0.000000
0.371249 0.046866 0.000000
0.910298 0.022647 0.000000
0.455341 0.068948 0.000000
0.737597 0.064730 0.000000
0.330362 0.100742 0.000000
0.940324 0.030144 0.000000
0.975758 0.040314 0.000000
0.400326 0.042485 0.000000
0.998133 0.050622 0.000000
0.437630 0.078871 0.000000
0.110169 0.176290 0.000000
0.357471 0.104523 0.000000
0.200000 -0.075000 0.000000
0.200000 -0.050000 0.000000
0.200000 -0.025000 0.000000
0.200000 0.000000 0.000000
0.320288 0.120803 0.000000
0.099478 0.037990 0.000000
0.262598 0.109862 0.000000
0.800572 0.022929 0.000000
0.348948 0.068859 0.000000
0.269511 0.169452 0.000000
0.580664 0.039882 0.000000
0.968517 0.075916 0.000000
0.329027 0.143907 0.000000
0.048152 0.138454 0.000000
0.788537 0.050245 0.000000
0.660056 0.103572 0.000000
0.055638 0.025141 0.000000
0.430526 0.124334 0.000000
0.524850 0.039148 0.000000
0.181814 0.222336 0.000000
0.699659 0.057611 0.000000
0.332877 0.163403 0.000000
0.842452 0.042866 0.000000
0.692849 0.073165 0.000000
0.225000 -0.075000 0.000000
0.225000 -0.050000 0.000000
0.225000 -0.025000 0.000000
0.225000 0.000000 0.000000
0.302531 0.064496 0.000000
0.810825 0.045377 0.000000
0.510764 0.106417 0.000000
0.218859 0.259704 0.000000
0.032050 0.195787 0.000000
0.077575 0.215522 0.000000
0.399583 0.120743 0.000000
0.881569 0.066114 0.000000
0.542508 0.057372 0.000000
0.038091 0.156546 0.000000
0.561227 0.091179 0.000000
0.172319 0.307265 0.000000
0.356180 0.024741 0.000000
0.402973 0.084298 0.000000
0.082971 0.084471 0.000000
0.198503 0.189714 0.000000
0.490503 0.103314 0.000000
0.022538 0.058442 0.000000
0.243436 0.131635 0.000000
0.316859 0.043036 0.000000
0.250000 -0.075000 0.000000
0.250000 -0.050000 0.000000
0.250000 -0.025000 0.000000
0.250000 0.000000 0.000000
0.725452 0.030102 0.000000
0.308884 0.184719 0.000000
0.212383 0.195470 0.000000
0.285697 0.087897 0.000000
0.272687 0.023463 0.000000
0.310941 0.154473 0.000000
0.135142 0.186889 0.000000
0.254561 0.179040 0.000000
0.244621 0.202004 0.000000
0.452225 0.105041 0.000000
0.184688 0.155096 0.000000
0.047137 0.193454 0.000000
0.170930 0.146613 0.000000
0.541996 0.021079 0.000000
0.357310 0.087089 0.000000
0.320388 0.077887 0.000000
0.269564 0.131875 0.000000
0.751032 0.043382 0.000000
0.029372 0.083373 0.000000
0.485056 0.123035 0.000000
0.275000 -0.075000 0.000000
0.275000 -0.050000 0.000000
0.275000 -0.025000 0.000000
0.275000 0.000000 0.000000
0.300000 -0.075000 0.000000
0.300000 -0.050000 0.000000
0.300000 -0.025000 0.000000
0.300000 0.000000 0.000000
0.325000 -0.075000 0.000000
0.325000 -0.050000 0.000000
0.325000 -0.025000 0.000000
0.325000 0.000000 0.000000
0.350000 -0.075000 0.000000
0.350000 -0.050000 0.000000
0.350000 -0.025000 0.000000
0.350000 0.000000 0.000000
0.375000 -0.075000 0.000000
0.375000 -0.050000 0.000000
0.375000 -0.025000 0.000000
0.375000 0.000000 0.000000
0.400000 -0.075000 0.000000
0.400000 -0.050000 0.000000
0.400000 -0.025000 0.000000
0.400000 0.000000 0.000000
0.425000 -0.075000 0.000000
0.425000 -0.050000 0.000000
0.425000 -0.025000 0.000000
0.425000 0.000000 0.000000
0.450000 -0.075000 0.000000
0.450000 -0.050000 0.000000
0.450000 -0.025000 0.000000
0.450000 0.000000 0.000000
0.475000 -0.075000 0.000000
0.475000 -0.050000 0.000000
0.475000 -0.025000 0.000000
0.475000 0.000000 0.000000
0.500000 -0.075000 0.000000
0.500000 -0.050000 0.000000
0.500000 -0.025000 0.000000
0.500000 0.000000 0.000000
0.525000 -0.075000 0.000000
0.525000 -0.050000 0.000000
0.525000 -0.025000 0.000000
0.525000 0.000000 0.000000
0.550000 -0.075000 0.000000
0.550000 -0.050000 0.000000
0.550000 -0.025000 0.000000
0.550000 0.000000 0.000000
0.575000 -0.075000 0.000000
0.575000 -0.050000 0.000000
0.575000 -0.025000 0.000000
0.575000 0.000000 0.000000
0.600000 -0.075000 0.000000
0.600000 -0.050000 0.000000
0.600000 -0.025000 0.000000
0.600000 0.000000 0.000000
0.625000 -0.075000 0.000000
0.625000 -0.050000 0.000000
0.625000 -0.025000 0.000000
0.625000 0.000000 0.000000
0.650000 -0.075000 0.000000
0.650000 -0.050000 0.000000
0.650000 -0.025000 0.000000
0.650000 0.000000 0.000000
0.675000 -0.075000 0.000000
0.675000 -0.050000 0.000000
0.675000 -0.025000 0.000000
0.675000 0.000000 0.000000
0.700000 -0.075000 0.000000
0.700000 -0.050000 0.000000
0.700000 -0.025000 0.000000
0.700000 0.000000 0.000000
0.725000 -0.075000 0.000000
0.725000 -0.050000 0.000000
0.725000 -0.025000 0.000000
0.725000 0.000000 0.000000
0.750000 -0.075000 0.000000
0.750000 -0.050000 0.000000
0.750000 -0.025000 0.000000
0.750000 0.000000 0.000000
0.775000 -0.075000 0.000000
0.775000 -0.050000 0.000000
0.775000 -0.025000 0.000000
0.775000 0.000000 0.000000
0.800000 -0.075000 0.000000
0.800000 -0.050000 0.000000
0.800000 -0.025000 0.000000
0.800000 0.000000 0.000000
0.825000 -0.075000 0.000000
0.825000 -0.050000 0.000000
0.825000 -0.025000 0.000000
0.825000 0.000000 0.000000
0.850000 -0.075000 0.000000
0.850000 -0.050000 0.000000
0.850000 -0.025000 0.000000
0.850000 0.000000 0.000000
0.875000 -0.075000 0.000000
0.875000 -0.050000 0.000000
0.875000 -0.025000 0.000000
0.875000 0.000000 0.000000
0.900000 -0.075000 0.000000
0.900000 -0.050000 0.000000
0.900000 -0.025000 0.000000
0.900000 0.000000 0.000000
0.925000 -0.075000 0.000000
0.925000 -0.050000 0.000000
0.925000 -0.025000 0.000000
0.925000 0.000000 0.000000
0.950000 -0.075000 0.000000
0.950000 -0.050000 0.000000
0.950000 -0.025000 0.000000
0.950000 0.000000 0.000000
0.975000 -0.075000 0.000000
0.975000 -0.050000 0.000000
0.975000 -0.025000 0.000000
0.975000 0.000000 0.000000
1.000000 -0.075000 0.000000
1.000000 -0.050000 0.000000
1.000000 -0.025000 0.000000
1.000000 0.000000 0.000000
1.025000 -0.075000 0.000000
1.025000 -0.050000 0.000000
1.025000 -0.025000 0.000000
1.025000 0.000000 0.000000
1.025000 0.025000 0.000000
1.025000 0.050000 0.000000
1.025000 0.075000 0.000000
1.025000 0.100000 0.000000
1.025000 0.125000 0.000000
1.025000 0.150000 0.000000
1.025000 0.175000 0.000000
1.025000 0.200000 0.000000
1.025000 0.225000 0.000000
1.025000 0.250000 0.000000
1.025000 0.275000 0.000000
1.025000 0.300000 0.000000
1.025000 0.325000 0.000000
1.025000 0.350000 0.000000
1.025000 0.375000 0.000000
1.025000 0.400000 0.000000
1.025000 0.425000 0.000000
1.025000 0.450000 0.000000
1.025000 0.475000 0.000000
1.025000 0.500000 0.000000
1.025000 0.525000 0.000000
1.025000 0.550000 0.000000
1.025000 0.575000 0.000000
1.025000 0.600000 0.000000
1.050000 -0.075000 0.000000
1.050000 -0.050000 0.000000
1.050000 -0.025000 0.000000
1.050000 0.000000 0.000000
1.050000 0.025000 0.000000
1.050000 0.050000 0.000000
1.050000 0.075000 0.000000
1.050000 0.100000 0.000000
1.050000 0.125000 0.000000
1.050000 0.150000 0.000000
1.050000 0.175000 0.000000
1.050000 0.200000 0.000000
1.050000 0.225000 0.000000
1.050000 0.250000 0.000000
1.050000 0.275000 0.000000
1.050000 0.300000 0.000000
1.050000 0.325000 0.000000
1.050000 0.350000 0.000000
1.050000 0.375000 0.000000
1.050000 0.400000 0.000000
1.050000 0.425000 0.000000
1.050000 0.450000 0.000000
1.050000 0.475000 0.000000
1.050000 0.500000 0.000000
1.050000 0.525000 0.000000
1.050000 0.550000 0.000000
1.050000 0.575000 0.000000
1.050000 0.600000 0.000000
1.075000 -0.075000 0.000000
1.075000 -0.050000 0.000000
1.075000 -0.025000 0.000000
1.075000 0.000000 0.000000
1.075000 0.025000 0.000000
1.075000 0.050000 0.000000
1.075000 0.075000 0.000000
1.075000 0.100000 0.000000
1.075000 0.125000 0.000000
1.075000 0.150000 0.000000
1.075000 0.175000 0.000000
1.075000 0.200000 0.000000
1.075000 0.225000 0.000000
1.075000 0.250000 0.000000
1.075000 0.275000 0.000000
1.075000 0.300000 0.000000
1.075000 0.325000 0.000000
1.075000 0.350000 0.000000
1.075000 0.375000 0.000000
1.075000 0.400000 0.000000
1.075000 0.425000 0.000000
1.075000 0.450000 0.000000
1.075000 0.475000 0.000000
1.075000 0.500000 0.000000
1.075000 0.525000 0.000000
1.075000 0.550000 0.000000
1.075000 0.575000 0.000000
1.075000 0.600000 0.000000
1.100000 -0.075000 0.000000
1.100000 -0.050000 0.000000
1.100000 -0.025000 0.000000
1.100000 0.000000 0.000000
1.100000 0.025000 0.000000
1.100000 0.050000 0.000000
1.100000 0.075000 0.000000
1.100000 0.100000 0.000000
1.100000 0.125000 0.000000
1.100000 0.150000 0.000000
1.100000 0.175000 0.000000
1.100000 0.200000 0.000000
1.100000 0.225000 0.000000
1.100000 0.250000 0.000000
1.100000 0.275000 0.000000
1.100000 0.300000 0.000000
1.100000 0.325000 0.000000
1.100000 0.350000 0.000000
1.100000 0.375000 0.000000
1.100000 0.400000 0.000000
1.100000 0.425000 0.000000
1.100000 0.450000 0.000000
1.100000 0.475000 0.000000
1.100000 0.500000 0.000000
1.100000 0.525000 0.000000
1.100000 0.550000 0.000000
1.100000 0.575000 0.000000
1.100000 0.600000 0.000000
</DataArray>
</Points>
<PointData>
<DataArray NumberOfComponents='1' type='Int32' Name='ParticleType' format='ascii'>
3
3
3
3
3
3
3
3
3
3
3
3
3
3
3
3
3
3
3
3
3
3
3
3
3
3
2
2
3
3
3
3
3
3
3
3
3
3
3
3
3
3
3
3
3
3
3
3
3
3
3
3
3
3
2
2
3
3
2
2
2
2
2
2
2
2
2
2
2
2
2
2
2
2
2
2
2
2
2
2
2
2
2
2
3
3
2
2
2
2
2
2
2
2
2
2
2
2
2
2
2
2
2
2
2
2
2
2
2
2
2
2
3
3
2
2
0
0
0
0
0
0
0
0
0
0
0
0
0
0
0
0
0
0
0
0
3
3
2
2
0
0
0
0
0
0
0
0
0
0
0
0
0
0
0
0
0
0
0
0
3
3
2
2
0
0
0
0
0
0
0
0
0
0
0
0
0
0
0
0
0
0
0
0
3
3
2
2
0
0
0
0
0
0
0
0
0
0
0
0
0
0
0
0
0
0
0
0
3
3
2
2
0
0
0
0
0
0
0
0
0
0
0
0
0
0
0
0
0
0
0
0
3
3
2
2
0
0
0
0
0
0
0
0
0
0
0
0
0
0
0
0
0
0
0
0
3
3
2
2
0
0
0
0
0
0
0
0
0
0
0
0
0
0
0
0
0
0
0
0
3
3
2
2
0
0
0
0
0
0
0
0
0
0
0
0
0
0
0
0
0
0
0
0
3
3
2
2
0
0
0
0
0
0
0
0
0
0
0
0
0
0
0
0
0
0
0
0
3
3
2
2
0
0
0
0
0
0
0
0
0
0
0
0
0
0
0
0
0
0
0
0
3
3
2
2
3
3
2
2
3
3
2
2
3
3
2
2
3
3
2
2
3
3
2
2
3
3
2
2
3
3
2
2
3
3
2
2
3
3
2
2
3
3
2
2
3
3
2
2
3
3
2
2
3
3
2
2
3
3
2
2
3
3
2
2
3
3
2
2
3
3
2
2
3
3
2
2
3
3
2
2
3
3
2
2
3
3
2
2
3
3
2
2
3
3
2
2
3
3
2
2
3
3
2
2
3
3
2
2
3
3
2
2
3
3
2
2
3
3
2
2
3
3
2
2
2
2
2
2
2
2
2
2
2
2
2
2
2
2
2
2
2
2
2
2
2
2
2
2
3
3
2
2
2
2
2
2
2
2
2
2
2
2
2
2
2
2
2
2
2
2
2
2
2
2
2
2
3
3
3
3
3
3
3
3
3
3
3
3
3
3
3
3
3
3
3
3
3
3
3
3
3
3
2
2
3
3
3
3
3
3
3
3
3
3
3
3
3
3
3
3
3
3
3
3
3
3
3
3
3
3
2
2
</DataArray>
<DataArray NumberOfComponents='1' type='Float32' Name='Velocity' format='ascii'>
0.000000
0.000000
0.000000
0.000000
0.000000
0.000000
0.000000
0.000000
0.000000
0.000000
0.000000
0.000000
0.000000
0.000000
0.000000
0.000000
0.000000
0.000000
0.000000
0.000000
0.000000
0.000000
0.000000
0.000000
0.000000
0.000000
0.000000
0.000000
0.000000
0.000000
0.000000
0.000000
0.000000
0.000000
0.000000
0.000000
0.000000
0.000000
0.000000
0.000000
0.000000
0.000000
0.000000
0.000000
0.000000
0.000000
0.000000
0.000000
0.000000
0.000000
0.000000
0.000000
0.000000
0.000000
0.000000
0.000000
0.000000
0.000000
0.000000
0.000000
0.000000
0.000000
0.000000
0.000000
0.000000
0.000000
0.000000
0.000000
0.000000
0.000000
0.000000
0.000000
0.000000
0.000000
0.000000
0.000000
0.000000
0.000000
0.000000
0.000000
0.000000
0.000000
0.000000
0.000000
0.000000
0.000000
0.000000
0.000000
0.000000
0.000000
0.000000
0.000000
0.000000
0.000000
0.000000
0.000000
0.000000
0.000000
0.000000
0.000000
0.000000
0.000000
0.000000
0.000000
0.000000
0.000000
0.000000
0.000000
0.000000
0.000000
0.000000
0.000000
0.000000
0.000000
0.000000
0.000000
0.498198
0.360536
0.500154
0.202004
0.412089
0.318133
0.337857
0.384126
0.321663
0.599346
0.295991
0.601008
0.450599
0.267608
0.254569
0.181254
0.658476
0.215718
0.905724
0.372638
0.000000
0.000000
0.000000
0.000000
0.551899
0.552751
0.512405
0.189645
0.163862
0.206425
0.379902
0.192214
0.519949
0.539625
0.548023
0.271564
0.547518
0.734616
0.614730
0.503456
0.187766
0.455774
0.635482
0.311304
0.000000
0.000000
0.000000
0.000000
0.508739
0.369905
0.299159
0.430644
0.345860
0.520508
0.547164
0.089639
0.097973
0.253004
0.298351
0.347803
0.430039
0.687661
0.289207
0.358900
0.281590
0.240213
0.275285
0.479389
0.000000
0.000000
0.000000
0.000000
0.169399
0.896898
0.362970
0.139584
0.256355
0.260756
0.412341
0.415893
0.166393
0.228603
0.350941
0.398456
0.250148
0.230385
0.478257
0.186821
0.163499
0.386811
0.144430
0.312157
0.000000
0.000000
0.000000
0.000000
0.285351
0.553653
0.235970
0.257819
0.359236
0.130252
0.317653
0.148706
0.295839
0.246858
0.133035
0.259099
0.126451
0.673532
0.135200
0.097678
0.410370
0.420748
0.347432
0.320910
0.000000
0.000000
0.000000
0.000000
0.296801
0.060477
0.395067
0.357965
0.076420
0.409464
0.227596
0.603429
0.316854
0.472056
0.418216
0.139640
0.285843
0.354810
0.068339
0.199971
0.072839
0.399946
0.485578
0.492197
0.000000
0.000000
0.000000
0.000000
0.124448
0.161404
0.304829
0.369205
0.130711
0.517370
0.279573
0.323031
0.296309
0.152507
0.115648
0.067699
0.133386
0.081215
0.145906
0.158216
0.134443
0.214689
0.332064
0.164530
0.000000
0.000000
0.000000
0.000000
0.571549
0.229148
0.331708
0.143903
0.426999
0.645237
0.237393
0.388649
0.347361
0.488388
0.020268
0.626359
0.204245
0.306867
0.370313
0.171901
0.375655
0.585528
0.085725
0.350186
0.000000
0.000000
0.000000
0.000000
0.319405
0.115985
0.168828
0.532013
0.479770
0.367295
0.117091
0.219740
0.192644
0.634965
0.308844
1.505903
0.328720
0.342856
0.492354
0.679574
0.187061
0.342030
0.156419
0.272883
0.000000
0.000000
0.000000
0.000000
0.130255
0.459656
0.361517
0.454542
0.407495
0.191313
0.174564
0.378814
0.244739
0.589965
0.311163
1.003527
0.154482
0.362406
0.138239
0.257546
0.408858
0.183017
0.406837
0.376650
0.000000
0.000000
0.000000
0.000000
0.000000
0.000000
0.000000
0.000000
0.000000
0.000000
0.000000
0.000000
0.000000
0.000000
0.000000
0.000000
0.000000
0.000000
0.000000
0.000000
0.000000
0.000000
0.000000
0.000000
0.000000
0.000000
0.000000
0.000000
0.000000
0.000000
0.000000
0.000000
0.000000
0.000000
0.000000
0.000000
0.000000
0.000000
0.000000
0.000000
0.000000
0.000000
0.000000
0.000000
0.000000
0.000000
0.000000
0.000000
0.000000
0.000000
0.000000
0.000000
0.000000
0.000000
0.000000
0.000000
0.000000
0.000000
0.000000
0.000000
0.000000
0.000000
0.000000
0.000000
0.000000
0.000000
0.000000
0.000000
0.000000
0.000000
0.000000
0.000000
0.000000
0.000000
0.000000
0.000000
0.000000
0.000000
0.000000
0.000000
0.000000
0.000000
0.000000
0.000000
0.000000
0.000000
0.000000
0.000000
0.000000
0.000000
0.000000
0.000000
0.000000
0.000000
0.000000
0.000000
0.000000
0.000000
0.000000
0.000000
0.000000
0.000000
0.000000
0.000000
0.000000
0.000000
0.000000
0.000000
0.000000
0.000000
0.000000
0.000000
0.000000
0.000000
0.000000
0.000000
0.000000
0.000000
0.000000
0.000000
0.000000
0.000000
0.000000
0.000000
0.000000
0.000000
0.000000
0.000000
0.000000
0.000000
0.000000
0.000000
0.000000
0.000000
0.000000
0.000000
0.000000
0.000000
0.000000
0.000000
0.000000
0.000000
0.000000
0.000000
0.000000
0.000000
0.000000
0.000000
0.000000
0.000000
0.000000
0.000000
0.000000
0.000000
0.000000
0.000000
0.000000
0.000000
0.000000
0.000000
0.000000
0.000000
0.000000
0.000000
0.000000
0.000000
0.000000
0.000000
0.000000
0.000000
0.000000
0.000000
0.000000
0.000000
0.000000
0.000000
0.000000
0.000000
0.000000
0.000000
0.000000
0.000000
0.000000
0.000000
0.000000
0.000000
0.000000
0.000000
0.000000
0.000000
0.000000
0.000000
0.000000
0.000000
0.000000
0.000000
0.000000
0.000000
0.000000
0.000000
0.000000
0.000000
0.000000
0.000000
0.000000
0.000000
0.000000
0.000000
0.000000
0.000000
0.000000
0.000000
0.000000
0.000000
0.000000
0.000000
0.000000
0.000000
0.000000
0.000000
0.000000
0.000000
0.000000
0.000000
0.000000
0.000000
0.000000
0.000000
0.000000
0.000000
0.000000
0.000000
</DataArray>
<DataArray NumberOfComponents='1' type='Float32' Name='pressure' format='ascii'>
0.000000
0.000000
0.000000
0.000000
0.000000
0.000000
0.000000
0.000000
0.000000
0.000000
0.000000
0.000000
0.000000
0.000000
0.000000
0.000000
0.000000
0.000000
0.000000
0.000000
0.000000
0.000000
0.000000
0.000000
0.000000
0.000000
0.000000
0.000000
0.000000
0.000000
0.000000
0.000000
0.000000
0.000000
0.000000
0.000000
0.000000
0.000000
0.000000
0.000000
0.000000
0.000000
0.000000
0.000000
0.000000
0.000000
0.000000
0.000000
0.000000
0.000000
0.000000
0.000000
0.000000
0.000000
0.000000
0.000000
0.000000
0.000000
3392.110840
3394.935303
3863.792480
3098.520508
1893.475830
1835.921631
1902.082397
1663.077515
1104.418823
1053.967041
1352.180908
0.000000
0.000000
0.000000
0.000000
0.000000
0.000000
0.000000
0.000000
0.000000
0.000000
0.000000
0.000000
0.000000
0.000000
0.000000
0.000000
0.000000
3224.948975
4120.563965
3945.682129
2129.677490
276.097870
2416.984375
1845.665894
894.668945
0.000000
0.000000
0.000000
0.000000
0.000000
0.000000
0.000000
0.000000
0.000000
0.000000
0.000000
0.000000
0.000000
0.000000
0.000000
0.000000
0.000000
0.000000
0.000000
0.000000
3153.880127
2371.563232
1261.288208
0.000000
1640.449219
0.000000
439.315369
2482.970215
294.092255
1053.867065
909.744446
0.000000
0.000000
1229.611816
1831.518311
1234.794067
1117.911987
626.509705
2589.486572
2793.053223
1535.073486
1171.719604
0.000000
0.000000
2880.062744
2427.481689
2118.931396
2722.490234
0.000000
0.000000
1874.246704
646.826721
0.000000
0.000000
1591.053955
0.000000
871.173340
0.000000
0.000000
0.000000
1523.912231
3073.657471
646.368652
233.974609
0.000000
2516.382568
0.000000
0.000000
4017.049072
3998.237061
495.611725
135.180450
0.000000
702.670715
0.000000
0.000000
0.000000
2192.518799
0.000000
175.165222
748.790588
1673.774292
770.283691
1305.172852
375.022034
2151.225586
242.865402
2947.874023
1049.885620
1264.021606
0.000000
0.000000
3441.867920
1725.309692
952.419983
0.000000
0.000000
351.908203
1202.316162
363.509155
0.000000
322.572418
365.407135
1080.220093
1030.038818
0.000000
424.168091
748.036987
0.000000
2201.145020
0.000000
1136.953369
619.596680
0.000000
0.000000
0.000000
3722.641602
2261.111084
1002.851990
1188.095093
0.000000
819.623474
0.000000
563.257446
0.000000
175.717010
0.000000
0.000000
0.000000
0.000000
0.000000
0.000000
1463.817139
0.000000
0.000000
882.537781
0.000000
0.000000
0.000000
0.000000
2625.929932
329.659729
0.000000
265.540039
0.000000
610.744141
1077.985596
264.466339
0.000000
0.000000
0.000000
0.000000
0.000000
622.825562
0.000000
0.000000
1079.236084
757.268005
401.296356
0.000000
0.000000
1661.344971
0.000000
0.000000
3125.343506
1875.933594
0.000000
0.000000
0.000000
0.000000
0.000000
0.000000
0.000000
273.283356
216.155655
311.331696
13.989670
0.000000
0.000000
0.000000
726.129761
1118.495972
0.000000
671.907104
0.000000
0.000000
0.000000
0.000000
3502.071289
2872.185547
0.000000
3004.503418
1055.942017
303.296143
65.213043
0.000000
0.000000
0.000000
0.000000
1146.103882
0.000000
0.000000
2514.845947
0.000000
0.000000
0.000000
2330.900391
0.000000
0.000000
0.000000
0.000000
0.000000
1573.404175
429.790710
583.340149
0.000000
0.000000
0.000000
0.000000
0.000000
0.000000
0.000000
357.266083
1586.557983
0.000000
0.000000
1440.675537
0.000000
1341.011108
327.583038
0.000000
1863.646973
92.638664
1262.401489
0.000000
0.000000
192.234558
0.000000
141.287689
0.000000
0.000000
8.283424
553.700562
0.000000
0.000000
0.000000
0.000000
0.000000
8.607236
0.000000
1391.942017
0.000000
396.409973
0.000000
0.000000
643.242004
2099.852051
0.000000
0.000000
0.000000
1542.579712
1866.807617
0.000000
0.000000
1348.966553
1921.205688
0.000000
0.000000
878.255127
646.616516
0.000000
0.000000
915.922424
288.619995
0.000000
0.000000
1389.110840
1095.319702
0.000000
0.000000
1699.635742
93.457794
0.000000
0.000000
2164.461914
2135.990723
0.000000
0.000000
1090.124146
984.682251
0.000000
0.000000
1400.479248
1432.270752
0.000000
0.000000
1205.156616
0.000000
0.000000
0.000000
270.102936
0.000000
0.000000
0.000000
1109.997925
198.570526
0.000000
0.000000
0.000000
0.000000
0.000000
0.000000
1242.012573
1805.261230
0.000000
0.000000
1071.740845
2025.688110
0.000000
0.000000
0.000000
0.000000
0.000000
0.000000
1551.189087
1492.229126
0.000000
0.000000
629.401184
876.977295
0.000000
0.000000
0.000000
0.000000
0.000000
0.000000
723.919495
957.534424
0.000000
0.000000
0.000000
0.000000
0.000000
0.000000
364.772888
73.789993
0.000000
0.000000
0.000000
0.000000
0.000000
0.000000
430.358490
455.501984
0.000000
0.000000
834.377686
1180.240356
0.000000
0.000000
1374.219482
909.446350
0.000000
0.000000
1046.335327
726.085266
0.000000
0.000000
1552.937988
565.905273
0.000000
0.000000
1883.544922
1198.854004
0.000000
0.000000
1168.577881
334.229675
0.000000
0.000000
446.452545
632.188965
0.000000
0.000000
0.000000
0.000000
0.000000
0.000000
0.000000
0.000000
0.000000
0.000000
0.000000
0.000000
0.000000
0.000000
0.000000
0.000000
0.000000
0.000000
0.000000
0.000000
0.000000
0.000000
0.000000
0.000000
0.000000
0.000000
214.038971
0.000000
0.000000
0.000000
0.000000
0.000000
0.000000
0.000000
0.000000
0.000000
0.000000
0.000000
0.000000
0.000000
0.000000
0.000000
0.000000
0.000000
0.000000
0.000000
0.000000
0.000000
0.000000
0.000000
0.000000
0.000000
0.000000
0.000000
0.000000
0.000000
0.000000
0.000000
0.000000
0.000000
0.000000
0.000000
0.000000
0.000000
0.000000
0.000000
0.000000
0.000000
0.000000
0.000000
0.000000
0.000000
0.000000
0.000000
0.000000
0.000000
0.000000
0.000000
0.000000
0.000000
0.000000
0.000000
0.000000
0.000000
0.000000
0.000000
0.000000
0.000000
0.000000
0.000000
0.000000
0.000000
0.000000
0.000000
0.000000
0.000000
0.000000
0.000000
0.000000
0.000000
0.000000
0.000000
0.000000
0.000000
0.000000
0.000000
0.000000
0.000000
</DataArray>
</PointData>
<Cells>
<DataArray type='Int32' Name='connectivity' format='ascii'>
0
1
2
3
4
5
6
7
8
9
10
11
12
13
14
15
16
17
18
19
20
21
22
23
24
25
26
27
28
29
30
31
32
33
34
35
36
37
38
39
40
41
42
43
44
45
46
47
48
49
50
51
52
53
54
55
56
57
58
59
60
61
62
63
64
65
66
67
68
69
70
71
72
73
74
75
76
77
78
79
80
81
82
83
84
85
86
87
88
89
90
91
92
93
94
95
96
97
98
99
100
101
102
103
104
105
106
107
108
109
110
111
112
113
114
115
116
117
118
119
120
121
122
123
124
125
126
127
128
129
130
131
132
133
134
135
136
137
138
139
140
141
142
143
144
145
146
147
148
149
150
151
152
153
154
155
156
157
158
159
160
161
162
163
164
165
166
167
168
169
170
171
172
173
174
175
176
177
178
179
180
181
182
183
184
185
186
187
188
189
190
191
192
193
194
195
196
197
198
199
200
201
202
203
204
205
206
207
208
209
210
211
212
213
214
215
216
217
218
219
220
221
222
223
224
225
226
227
228
229
230
231
232
233
234
235
236
237
238
239
240
241
242
243
244
245
246
247
248
249
250
251
252
253
254
255
256
257
258
259
260
261
262
263
264
265
266
267
268
269
270
271
272
273
274
275
276
277
278
279
280
281
282
283
284
285
286
287
288
289
290
291
292
293
294
295
296
297
298
299
300
301
302
303
304
305
306
307
308
309
310
311
312
313
314
315
316