<?xml version='1.0' encoding='UTF-8'?>
<VTKFile xmlns='VTK' byte_order='LittleEndian' version='0.1' type='UnstructuredGrid'>
<UnstructuredGrid>
<Piece NumberOfCells='584' NumberOfPoints='584'>
<Points>
<DataArray NumberOfComponents='3' type='Float32' Name='Position' format='ascii'>
-0.075000 -0.075000 0.000000
-0.075000 -0.050000 0.000000
-0.075000 -0.025000 0.000000
-0.075000 0.000000 0.000000
-0.075000 0.025000 0.000000
-0.075000 0.050000 0.000000
-0.075000 0.075000 0.000000
-0.075000 0.100000 0.000000
-0.075000 0.125000 0.000000
-0.075000 0.150000 0.000000
-0.075000 0.175000 0.000000
-0.075000 0.200000 0.000000
-0.075000 0.225000 0.000000
-0.075000 0.250000 0.000000
-0.075000 0.275000 0.000000
-0.075000 0.300000 0.000000
-0.075000 0.325000 0.000000
-0.075000 0.350000 0.000000
-0.075000 0.375000 0.000000
-0.075000 0.400000 0.000000
-0.075000 0.425000 0.000000
-0.075000 0.450000 0.000000
-0.075000 0.475000 0.000000
-0.075000 0.500000 0.000000
-0.075000 0.525000 0.000000
-0.075000 0.550000 0.000000
-0.075000 0.575000 0.000000
-0.075000 0.600000 0.000000
-0.050000 -0.075000 0.000000
-0.050000 -0.050000 0.000000
-0.050000 -0.025000 0.000000
-0.050000 0.000000 0.000000
-0.050000 0.025000 0.000000
-0.050000 0.050000 0.000000
-0.050000 0.075000 0.000000
-0.050000 0.100000 0.000000
-0.050000 0.125000 0.000000
-0.050000 0.150000 0.000000
-0.050000 0.175000 0.000000
-0.050000 0.200000 0.000000
-0.050000 0.225000 0.000000
-0.050000 0.250000 0.000000
-0.050000 0.275000 0.000000
-0.050000 0.300000 0.000000
-0.050000 0.325000 0.000000
-0.050000 0.350000 0.000000
-0.050000 0.375000 0.000000
-0.050000 0.400000 0.000000
-0.050000 0.425000 0.000000
-0.050000 0.450000 0.000000
-0.050000 0.475000 0.000000
-0.050000 0.500000 0.000000
-0.050000 0.525000 0.000000
-0.050000 0.550000 0.000000
-0.050000 0.575000 0.000000
-0.050000 0.600000 0.000000
-0.025000 -0.075000 0.000000
-0.025000 -0.050000 0.000000
-0.025000 -0.025000 0.000000
-0.025000 0.000000 0.000000
-0.025000 0.025000 0.000000
-0.025000 0.050000 0.000000
-0.025000 0.075000 0.000000
-0.025000 0.100000 0.000000
-0.025000 0.125000 0.000000
-0.025000 0.150000 0.000000
-0.025000 0.175000 0.000000
-0.025000 0.200000 0.000000
-0.025000 0.225000 0.000000
-0.025000 0.250000 0.000000
-0.025000 0.275000 0.000000
-0.025000 0.300000 0.000000
-0.025000 0.325000 0.000000
-0.025000 0.350000 0.000000
-0.025000 0.375000 0.000000
-0.025000 0.400000 0.000000
-0.025000 0.425000 0.000000
-0.025000 0.450000 0.000000
-0.025000 0.475000 0.000000
-0.025000 0.500000 0.000000
-0.025000 0.525000 0.000000
-0.025000 0.550000 0.000000
-0.025000 0.575000 0.000000
-0.025000 0.600000 0.000000
0.000000 -0.075000 0.000000
0.000000 -0.050000 0.000000
0.000000 -0.025000 0.000000
0.000000 0.000000 0.000000
0.000000 0.025000 0.000000
0.000000 0.050000 0.000000
0.000000 0.075000 0.000000
0.000000 0.100000 0.000000
0.000000 0.125000 0.000000
0.000000 0.150000 0.000000
0.000000 0.175000 0.000000
0.000000 0.200000 0.000000
0.000000 0.225000 0.000000
0.000000 0.250000 0.000000
0.000000 0.275000 0.000000
0.000000 0.300000 0.000000
0.000000 0.325000 0.000000
0.000000 0.350000 0.000000
0.000000 0.375000 0.000000
0.000000 0.400000 0.000000
0.000000 0.425000 0.000000
0.000000 0.450000 0.000000
0.000000 0.475000 0.000000
0.000000 0.500000 0.000000
0.000000 0.525000 0.000000
0.000000 0.550000 0.000000
0.000000 0.575000 0.000000
0.000000 0.600000 0.000000
0.025000 -0.075000 0.000000
0.025000 -0.050000 0.000000
0.025000 -0.025000 0.000000
0.025000 0.000000 0.000000
0.285086 0.038578 0.000000
0.266599 0.023698 0.000000
0.263823 0.058597 0.000000
0.191338 0.020904 0.000000
0.375296 0.022793 0.000000
0.059411 0.019209 0.000000
0.458378 0.026045 0.000000
0.302427 0.023897 0.000000
0.228452 0.027133 0.000000
0.150990 0.043509 0.000000
0.309350 0.050660 0.000000
0.201008 0.050922 0.000000
0.163180 0.025743 0.000000
0.026201 0.028151 0.000000
0.023934 0.047679 0.000000
0.051319 0.040919 0.000000
0.108220 0.021649 0.000000
0.091700 0.035415 0.000000
0.102015 0.046580 0.000000
0.138943 0.026042 0.000000
0.050000 -0.075000 0.000000
0.050000 -0.050000 0.000000
0.050000 -0.025000 0.000000
0.050000 0.000000 0.000000
0.357492 0.039304 0.000000
0.478163 0.147037 0.000000
0.470432 0.131370 0.000000
0.253268 0.183252 0.000000
0.335456 0.143131 0.000000
0.632498 0.051499 0.000000
0.432474 0.108615 0.000000
0.746318 0.050289 0.000000
0.395524 0.030358 0.000000
0.427627 0.082209 0.000000
0.313965 0.113422 0.000000
0.442533 0.053279 0.000000
0.060388 0.052931 0.000000
0.444234 0.075926 0.000000
0.280432 0.066270 0.000000
0.288719 0.079519 0.000000
0.213417 0.042979 0.000000
0.335686 0.021392 0.000000
0.129434 0.051062 0.000000
0.186601 0.047071 0.000000
0.075000 -0.075000 0.000000
0.075000 -0.050000 0.000000
0.075000 -0.025000 0.000000
0.075000 0.000000 0.000000
0.392083 0.085461 0.000000
0.426318 0.142582 0.000000
0.537810 0.023315 0.000000
0.497013 0.020636 0.000000
0.779191 0.097607 0.000000
0.820844 0.028476 0.000000
0.816166 0.055816 0.000000
0.084622 0.080878 0.000000
0.761544 0.085043 0.000000
0.793997 0.049594 0.000000
0.617290 0.024964 0.000000
0.462607 0.115379 0.000000
0.317164 0.068863 0.000000
0.381899 0.058442 0.000000
0.415023 0.024845 0.000000
0.368981 0.065379 0.000000
0.336290 0.042046 0.000000
0.298530 0.109421 0.000000
0.332454 0.105099 0.000000
0.246126 0.027154 0.000000
0.100000 -0.075000 0.000000
0.100000 -0.050000 0.000000
0.100000 -0.025000 0.000000
0.100000 0.000000 0.000000
0.664427 0.020566 0.000000
0.596803 0.023955 0.000000
0.706268 0.076329 0.000000
0.900793 0.024487 0.000000
0.416501 0.056936 0.000000
0.878145 0.025435 0.000000
0.847380 0.094341 0.000000
0.558443 0.142841 0.000000
0.842577 0.023129 0.000000
0.841511 0.052315 0.000000
0.640830 0.031257 0.000000
0.652733 0.069058 0.000000
0.798179 0.074849 0.000000
0.774757 0.040024 0.000000
0.484136 0.081002 0.000000
0.437290 0.034254 0.000000
0.699707 0.025086 0.000000
0.696486 0.121316 0.000000
0.564044 0.047609 0.000000
0.487103 0.057853 0.000000
0.125000 -0.075000 0.000000
0.125000 -0.050000 0.000000
0.125000 -0.025000 0.000000
0.125000 0.000000 0.000000
0.874942 0.061685 0.000000
0.917754 0.106177 0.000000
1.002422 0.113398 0.000000
0.930717 0.026326 0.000000
0.895933 0.174927 0.000000
0.758278 0.024228 0.000000
0.604501 0.087672 0.000000
0.819180 0.126459 0.000000
0.922028 0.084621 0.000000
0.874108 0.106821 0.000000
0.948821 0.073546 0.000000
0.754435 0.189180 0.000000
0.676381 0.039743 0.000000
0.723163 0.059624 0.000000
0.521989 0.041288 0.000000
0.763880 0.065071 0.000000
0.716513 0.107581 0.000000
0.409794 0.122636 0.000000
0.682925 0.057001 0.000000
0.354745 0.121697 0.000000
0.150000 -0.075000 0.000000
0.150000 -0.050000 0.000000
0.150000 -0.025000 0.000000
0.150000 0.000000 0.000000
0.608552 0.129163 0.000000
1.003540 0.031566 0.000000
0.932154 0.192183 0.000000
0.564156 0.079778 0.000000
0.973489 0.046455 0.000000
0.371020 0.138905 0.000000
0.979383 0.101050 0.000000
0.691454 0.096141 0.000000
1.001892 0.081736 0.000000
0.946322 0.134867 0.000000
0.948700 0.049028 0.000000
0.863763 0.040323 0.000000
0.911843 0.042053 0.000000
0.924823 0.063376 0.000000
0.885585 0.083486 0.000000
0.797113 0.105644 0.000000
0.796602 0.020497 0.000000
0.828811 0.103675 0.000000
0.820497 0.079837 0.000000
0.625921 0.071520 0.000000
0.175000 -0.075000 0.000000
0.175000 -0.050000 0.000000
0.175000 -0.025000 0.000000
0.175000 0.000000 0.000000
0.284030 0.114234 0.000000
0.917284 0.155933 0.000000
0.961502 0.163232 0.000000
0.992383 0.130151 0.000000
0.965598 0.132275 0.000000
0.441953 0.126213 0.000000
0.953022 0.024894 0.000000
0.605168 0.151607 0.000000
0.541590 0.057305 0.000000
0.982775 0.022260 0.000000
0.828321 0.153646 0.000000
0.915642 0.130314 0.000000
0.737630 0.177849 0.000000
0.959263 0.096358 0.000000
0.976146 0.071261 0.000000
0.602846 0.054509 0.000000
0.995506 0.059880 0.000000
0.743398 0.103128 0.000000
0.639255 0.123609 0.000000
0.761227 0.157770 0.000000
0.200000 -0.075000 0.000000
0.200000 -0.050000 0.000000
0.200000 -0.025000 0.000000
0.200000 0.000000 0.000000
0.671359 0.114320 0.000000
0.386774 0.151549 0.000000
0.571862 0.090407 0.000000
0.948441 0.171078 0.000000
0.526940 0.076743 0.000000
0.717209 0.142571 0.000000
0.800826 0.134320 0.000000
0.967539 0.206443 0.000000
0.758949 0.127529 0.000000
0.398242 0.099135 0.000000
0.998511 0.159050 0.000000
0.897524 0.069108 0.000000
0.119881 0.073314 0.000000
0.674665 0.078433 0.000000
0.857930 0.119738 0.000000
0.487458 0.109203 0.000000
0.885523 0.140283 0.000000
0.657977 0.107190 0.000000
0.943788 0.112375 0.000000
0.851167 0.072232 0.000000
0.225000 -0.075000 0.000000
0.225000 -0.050000 0.000000
0.225000 -0.025000 0.000000
0.225000 0.000000 0.000000
0.616083 0.170192 0.000000
0.935414 0.870700 0.000000
0.867427 0.146393 0.000000
0.344995 0.094213 0.000000
0.336158 0.072300 0.000000
0.119368 0.101225 0.000000
0.784187 0.127664 0.000000
0.983243 0.157383 0.000000
0.863822 0.170325 0.000000
0.510860 0.095299 0.000000
0.921903 0.171887 0.000000
0.358268 0.164320 0.000000
0.505045 0.051257 0.000000
0.731707 0.080670 0.000000
0.412709 0.143909 0.000000
0.592487 0.099229 0.000000
0.712663 0.039137 0.000000
0.239023 0.152519 0.000000
0.501020 0.159166 0.000000
0.521691 0.156029 0.000000
0.250000 -0.075000 0.000000
0.250000 -0.050000 0.000000
0.250000 -0.025000 0.000000
0.250000 0.000000 0.000000
0.928965 0.370726 0.000000
0.687387 0.304085 0.000000
0.644621 0.086753 0.000000
0.630377 0.162840 0.000000
0.465815 0.465210 0.000000
0.732316 0.123120 0.000000
0.512064 0.220096 0.000000
0.531719 0.095941 0.000000
0.478021 0.031643 0.000000
0.843370 0.140121 0.000000
0.468306 0.076592 0.000000
0.208098 0.197076 0.000000
0.509136 0.132787 0.000000
0.734593 0.023223 0.000000
0.583419 0.048642 0.000000
0.521661 0.112716 0.000000
0.561793 0.024495 0.000000
0.896944 0.116268 0.000000
0.226932 0.182862 0.000000
0.883460 0.180542 0.000000
0.275000 -0.075000 0.000000
0.275000 -0.050000 0.000000
0.275000 -0.025000 0.000000
0.275000 0.000000 0.000000
0.300000 -0.075000 0.000000
0.300000 -0.050000 0.000000
0.300000 -0.025000 0.000000
0.300000 0.000000 0.000000
0.325000 -0.075000 0.000000
0.325000 -0.050000 0.000000
0.325000 -0.025000 0.000000
0.325000 0.000000 0.000000
0.350000 -0.075000 0.000000
0.350000 -0.050000 0.000000
0.350000 -0.025000 0.000000
0.350000 0.000000 0.000000
0.375000 -0.075000 0.000000
0.375000 -0.050000 0.000000
0.375000 -0.025000 0.000000
0.375000 0.000000 0.000000
0.400000 -0.075000 0.000000
0.400000 -0.050000 0.000000
0.400000 -0.025000 0.000000
0.400000 0.000000 0.000000
0.425000 -0.075000 0.000000
0.425000 -0.050000 0.000000
0.425000 -0.025000 0.000000
0.425000 0.000000 0.000000
0.450000 -0.075000 0.000000
0.450000 -0.050000 0.000000
0.450000 -0.025000 0.000000
0.450000 0.000000 0.000000
0.475000 -0.075000 0.000000
0.475000 -0.050000 0.000000
0.475000 -0.025000 0.000000
0.475000 0.000000 0.000000
0.500000 -0.075000 0.000000
0.500000 -0.050000 0.000000
0.500000 -0.025000 0.000000
0.500000 0.000000 0.000000
0.525000 -0.075000 0.000000
0.525000 -0.050000 0.000000
0.525000 -0.025000 0.000000
0.525000 0.000000 0.000000
0.550000 -0.075000 0.000000
0.550000 -0.050000 0.000000
0.550000 -0.025000 0.000000
0.550000 0.000000 0.000000
0.575000 -0.075000 0.000000
0.575000 -0.050000 0.000000
0.575000 -0.025000 0.000000
0.575000 0.000000 0.000000
0.600000 -0.075000 0.000000
0.600000 -0.050000 0.000000
0.600000 -0.025000 0.000000
0.600000 0.000000 0.000000
0.625000 -0.075000 0.000000
0.625000 -0.050000 0.000000
0.625000 -0.025000 0.000000
0.625000 0.000000 0.000000
0.650000 -0.075000 0.000000
0.650000 -0.050000 0.000000
0.650000 -0.025000 0.000000
0.650000 0.000000 0.000000
0.675000 -0.075000 0.000000
0.675000 -0.050000 0.000000
0.675000 -0.025000 0.000000
0.675000 0.000000 0.000000
0.700000 -0.075000 0.000000
0.700000 -0.050000 0.000000
0.700000 -0.025000 0.000000
0.700000 0.000000 0.000000
0.725000 -0.075000 0.000000
0.725000 -0.050000 0.000000
0.725000 -0.025000 0.000000
0.725000 0.000000 0.000000
0.750000 -0.075000 0.000000
0.750000 -0.050000 0.000000
0.750000 -0.025000 0.000000
0.750000 0.000000 0.000000
0.775000 -0.075000 0.000000
0.775000 -0.050000 0.000000
0.775000 -0.025000 0.000000
0.775000 0.000000 0.000000
0.800000 -0.075000 0.000000
0.800000 -0.050000 0.000000
0.800000 -0.025000 0.000000
0.800000 0.000000 0.000000
0.825000 -0.075000 0.000000
0.825000 -0.050000 0.000000
0.825000 -0.025000 0.000000
0.825000 0.000000 0.000000
0.850000 -0.075000 0.000000
0.850000 -0.050000 0.000000
0.850000 -0.025000 0.000000
0.850000 0.000000 0.000000
0.875000 -0.075000 0.000000
0.875000 -0.050000 0.000000
0.875000 -0.025000 0.000000
0.875000 0.000000 0.000000
0.900000 -0.075000 0.000000
0.900000 -0.050000 0.000000
0.900000 -0.025000 0.000000
0.900000 0.000000 0.000000
0.925000 -0.075000 0.000000
0.925000 -0.050000 0.000000
0.925000 -0.025000 0.000000
0.925000 0.000000 0.000000
0.950000 -0.075000 0.000000
0.950000 -0.050000 0.000000
0.950000 -0.025000 0.000000
0.950000 0.000000 0.000000
0.975000 -0.075000 0.000000
0.975000 -0.050000 0.000000
0.975000 -0.025000 0.000000
0.975000 0.000000 0.000000
1.000000 -0.075000 0.000000
1.000000 -0.050000 0.000000
1.000000 -0.025000 0.000000
1.000000 0.000000 0.000000
1.025000 -0.075000 0.000000
1.025000 -0.050000 0.000000
1.025000 -0.025000 0.000000
1.025000 0.000000 0.000000
1.025000 0.025000 0.000000
1.025000 0.050000 0.000000
1.025000 0.075000 0.000000
1.025000 0.100000 0.000000
1.025000 0.125000 0.000000
1.025000 0.150000 0.000000
1.025000 0.175000 0.000000
1.025000 0.200000 0.000000
1.025000 0.225000 0.000000
1.025000 0.250000 0.000000
1.025000 0.275000 0.000000
1.025000 0.300000 0.000000
1.025000 0.325000 0.000000
1.025000 0.350000 0.000000
1.025000 0.375000 0.000000
1.025000 0.400000 0.000000
1.025000 0.425000 0.000000
1.025000 0.450000 0.000000
1.025000 0.475000 0.000000
1.025000 0.500000 0.000000
1.025000 0.525000 0.000000
1.025000 0.550000 0.000000
1.025000 0.575000 0.000000
1.025000 0.600000 0.000000
1.050000 -0.075000 0.000000
1.050000 -0.050000 0.000000
1.050000 -0.025000 0.000000
1.050000 0.000000 0.000000
1.050000 0.025000 0.000000
1.050000 0.050000 0.000000
1.050000 0.075000 0.000000
1.050000 0.100000 0.000000
1.050000 0.125000 0.000000
1.050000 0.150000 0.000000
1.050000 0.175000 0.000000
1.050000 0.200000 0.000000
1.050000 0.225000 0.000000
1.050000 0.250000 0.000000
1.050000 0.275000 0.000000
1.050000 0.300000 0.000000
1.050000 0.325000 0.000000
1.050000 0.350000 0.000000
1.050000 0.375000 0.000000
1.050000 0.400000 0.000000
1.050000 0.425000 0.000000
1.050000 0.450000 0.000000
1.050000 0.475000 0.000000
1.050000 0.500000 0.000000
1.050000 0.525000 0.000000
1.050000 0.550000 0.000000
1.050000 0.575000 0.000000
1.050000 0.600000 0.000000
1.075000 -0.075000 0.000000
1.075000 -0.050000 0.000000
1.075000 -0.025000 0.000000
1.075000 0.000000 0.000000
1.075000 0.025000 0.000000
1.075000 0.050000 0.000000
1.075000 0.075000 0.000000
1.075000 0.100000 0.000000
1.075000 0.125000 0.000000
1.075000 0.150000 0.000000
1.075000 0.175000 0.000000
1.075000 0.200000 0.000000
1.075000 0.225000 0.000000
1.075000 0.250000 0.000000
1.075000 0.275000 0.000000
1.075000 0.300000 0.000000
1.075000 0.325000 0.000000
1.075000 0.350000 0.000000
1.075000 0.375000 0.000000
1.075000 0.400000 0.000000
1.075000 0.425000 0.000000
1.075000 0.450000 0.000000
1.075000 0.475000 0.000000
1.075000 0.500000 0.000000
1.075000 0.525000 0.000000
1.075000 0.550000 0.000000
1.075000 0.575000 0.000000
1.075000 0.600000 0.000000
1.100000 -0.075000 0.000000
1.100000 -0.050000 0.000000
1.100000 -0.025000 0.000000
1.100000 0.000000 0.000000
1.100000 0.025000 0.000000
1.100000 0.050000 0.000000
1.100000 0.075000 0.000000
1.100000 0.100000 0.000000
1.100000 0.125000 0.000000
1.100000 0.150000 0.000000
1.100000 0.175000 0.000000
1.100000 0.200000 0.000000
1.100000 0.225000 0.000000
1.100000 0.250000 0.000000
1.100000 0.275000 0.000000
1.100000 0.300000 0.000000
1.100000 0.325000 0.000000
1.100000 0.350000 0.000000
1.100000 0.375000 0.000000
1.100000 0.400000 0.000000
1.100000 0.425000 0.000000
1.100000 0.450000 0.000000
1.100000 0.475000 0.000000
1.100000 0.500000 0.000000
1.100000 0.525000 0.000000
1.100000 0.550000 0.000000
1.100000 0.575000 0.000000
1.100000 0.600000 0.000000
</DataArray>
</Points>
<PointData>
<DataArray NumberOfComponents='1' type='Int32' Name='ParticleType' format='ascii'>
3
3
3
3
3
3
3
3
3
3
3
3
3
3
3
3
3
3
3
3
3
3
3
3
3
3
2
2
3
3
3
3
3
3
3
3
3
3
3
3
3
3
3
3
3
3
3
3
3
3
3
3
3
3
2
2
3
3
2
2
2
2
2
2
2
2
2
2
2
2
2
2
2
2
2
2
2
2
2
2
2
2
2
2
3
3
2
2
2
2
2
2
2
2
2
2
2
2
2
2
2
2
2
2
2
2
2
2
2
2
2
2
3
3
2
2
0
0
0
0
0
0
0
0
0
0
0
0
0
0
0
0
0
0
0
0
3
3
2
2
0
0
0
0
0
0
0
0
0
0
0
0
0
0
0
0
0
0
0
0
3
3
2
2
0
0
0
0
0
0
0
0
0
0
0
0
0
0
0
0
0
0
0
0
3
3
2
2
0
0
0
0
0
0
0
0
0
0
0
0
0
0
0
0
0
0
0
0
3
3
2
2
0
0
0
0
0
0
0
0
0
0
0
0
0
0
0
0
0
0
0
0
3
3
2
2
0
0
0
0
0
0
0
0
0
0
0
0
0
0
0
0
0
0
0
0
3
3
2
2
0
0
0
0
0
0
0
0
0
0
0
0
0
0
0
0
0
0
0
0
3
3
2
2
0
0
0
0
0
0
0
0
0
0
0
0
0
0
0
0
0
0
0
0
3
3
2
2
0
0
0
0
0
0
0
0
0
0
0
0
0
0
0
0
0
0
0
0
3
3
2
2
0
0
0
0
0
0
0
0
0
0
0
0
0
0
0
0
0
0
0
0
3
3
2
2
3
3
2
2
3
3
2
2
3
3
2
2
3
3
2
2
3
3
2
2
3
3
2
2
3
3
2
2
3
3
2
2
3
3
2
2
3
3
2
2
3
3
2
2
3
3
2
2
3
3
2
2
3
3
2
2
3
3
2
2
3
3
2
2
3
3
2
2
3
3
2
2
3
3
2
2
3
3
2
2
3
3
2
2
3
3
2
2
3
3
2
2
3
3
2
2
3
3
2
2
3
3
2
2
3
3
2
2
3
3
2
2
3
3
2
2
3
3
2
2
2
2
2
2
2
2
2
2
2
2
2
2
2
2
2
2
2
2
2
2
2
2
2
2
3
3
2
2
2
2
2
2
2
2
2
2
2
2
2
2
2
2
2
2
2
2
2
2
2
2
2
2
3
3
3
3
3
3
3
3
3
3
3
3
3
3
3
3
3
3
3
3
3
3
3
3
3
3
2
2
3
3
3
3
3
3
3
3
3
3
3
3
3
3
3
3
3
3
3
3
3
3
3
3
3
3
2
2
</DataArray>
<DataArray NumberOfComponents='1' type='Float32' Name='Velocity' format='ascii'>
0.000000
0.000000
0.000000
0.000000
0.000000
0.000000
0.000000
0.000000
0.000000
0.000000
0.000000
0.000000
0.000000
0.000000
0.000000
0.000000
0.000000
0.000000
0.000000
0.000000
0.000000
0.000000
0.000000
0.000000
0.000000
0.000000
0.000000
0.000000
0.000000
0.000000
0.000000
0.000000
0.000000
0.000000
0.000000
0.000000
0.000000
0.000000
0.000000
0.000000
0.000000
0.000000
0.000000
0.000000
0.000000
0.000000
0.000000
0.000000
0.000000
0.000000
0.000000
0.000000
0.000000
0.000000
0.000000
0.000000
0.000000
0.000000
0.000000
0.000000
0.000000
0.000000
0.000000
0.000000
0.000000
0.000000
0.000000
0.000000
0.000000
0.000000
0.000000
0.000000
0.000000
0.000000
0.000000
0.000000
0.000000
0.000000
0.000000
0.000000
0.000000
0.000000
0.000000
0.000000
0.000000
0.000000
0.000000
0.000000
0.000000
0.000000
0.000000
0.000000
0.000000
0.000000
0.000000
0.000000
0.000000
0.000000
0.000000
0.000000
0.000000
0.000000
0.000000
0.000000
0.000000
0.000000
0.000000
0.000000
0.000000
0.000000
0.000000
0.000000
0.000000
0.000000
0.000000
0.000000
0.232885
0.163106
0.546248
0.073326
0.398743
0.100284
0.471578
0.397488
0.106762
0.147410
0.258409
0.230692
0.220125
0.069532
0.112942
0.147560
0.084506
0.124239
0.411785
0.207985
0.000000
0.000000
0.000000
0.000000
0.674037
1.346123
1.332312
2.306458
2.171296
0.428921
1.563451
0.650458
0.453906
0.638577
1.384968
0.692826
0.047343
0.486456
0.571106
1.441125
0.110959
0.310157
0.218926
0.148509
0.000000
0.000000
0.000000
0.000000
0.171936
1.699167
0.324266
0.578148
0.685932
0.424812
0.256907
2.941839
0.585028
0.271889
0.325712
1.791760
0.728590
0.421120
0.572682
0.329062
0.170183
1.662296
1.449696
0.047629
0.000000
0.000000
0.000000
0.000000
0.970406
0.496858
1.064824
0.094658
0.371110
0.092194
0.406205
2.091488
0.226160
0.400271
0.493893
1.032241
0.577147
0.480659
1.062212
0.498933
0.447854
1.100513
0.365468
0.513948
0.000000
0.000000
0.000000
0.000000
0.618735
0.091007
0.253563
0.248072
0.613089
0.220278
0.532141
0.674581
0.106598
0.110029
0.202241
0.318670
0.655424
0.598297
0.903461
0.492477
0.537425
1.454520
0.493096
1.518164
0.000000
0.000000
0.000000
0.000000
1.551367
0.153119
1.559199
0.828044
0.419212
1.821604
0.331405
0.784788
0.310914
0.330393
0.281723
0.403002
0.292179
0.342225
0.183613
0.344827
0.162578
0.626969
0.343292
0.497547
0.000000
0.000000
0.000000
0.000000
1.703796
0.797167
0.385633
0.294767
0.199376
1.779112
0.251772
2.332432
0.446379
0.298575
0.390667
0.173490
0.477294
0.229195
0.245920
0.368269
0.258092
0.662787
1.957489
0.744579
0.000000
0.000000
0.000000
0.000000
1.011078
1.596165
0.851441
0.593919
1.366802
1.179255
0.968095
1.566894
1.049270
0.486584
0.290435
0.489462
2.881090
0.854124
0.559071
2.139473
0.490340
1.085528
0.218063
0.693785
0.000000
0.000000
0.000000
0.000000
1.328263
2.905534
0.786547
1.488409
0.677464
2.877606
1.048173
0.514524
0.819608
1.227269
0.376465
1.206998
0.546985
0.869195
1.510885
1.398869
0.391084
2.781135
0.740249
1.077376
0.000000
0.000000
0.000000
0.000000
3.639112
3.626383
0.682770
1.297222
3.543563
1.122855
3.769760
1.738343
0.401173
0.716809
0.843199
2.595551
1.979732
0.021435
0.567725
1.553121
0.178306
0.164661
2.326776
0.806977
0.000000
0.000000
0.000000
0.000000
0.000000
0.000000
0.000000
0.000000
0.000000
0.000000
0.000000
0.000000
0.000000
0.000000
0.000000
0.000000
0.000000
0.000000
0.000000
0.000000
0.000000
0.000000
0.000000
0.000000
0.000000
0.000000
0.000000
0.000000
0.000000
0.000000
0.000000
0.000000
0.000000
0.000000
0.000000
0.000000
0.000000
0.000000
0.000000
0.000000
0.000000
0.000000
0.000000
0.000000
0.000000
0.000000
0.000000
0.000000
0.000000
0.000000
0.000000
0.000000
0.000000
0.000000
0.000000
0.000000
0.000000
0.000000
0.000000
0.000000
0.000000
0.000000
0.000000
0.000000
0.000000
0.000000
0.000000
0.000000
0.000000
0.000000
0.000000
0.000000
0.000000
0.000000
0.000000
0.000000
0.000000
0.000000
0.000000
0.000000
0.000000
0.000000
0.000000
0.000000
0.000000
0.000000
0.000000
0.000000
0.000000
0.000000
0.000000
0.000000
0.000000
0.000000
0.000000
0.000000
0.000000
0.000000
0.000000
0.000000
0.000000
0.000000
0.000000
0.000000
0.000000
0.000000
0.000000
0.000000
0.000000
0.000000
0.000000
0.000000
0.000000
0.000000
0.000000
0.000000
0.000000
0.000000
0.000000
0.000000
0.000000
0.000000
0.000000
0.000000
0.000000
0.000000
0.000000
0.000000
0.000000
0.000000
0.000000
0.000000
0.000000
0.000000
0.000000
0.000000
0.000000
0.000000
0.000000
0.000000
0.000000
0.000000
0.000000
0.000000
0.000000
0.000000
0.000000
0.000000
0.000000
0.000000
0.000000
0.000000
0.000000
0.000000
0.000000
0.000000
0.000000
0.000000
0.000000
0.000000
0.000000
0.000000
0.000000
0.000000
0.000000
0.000000
0.000000
0.000000
0.000000
0.000000
0.000000
0.000000
0.000000
0.000000
0.000000
0.000000
0.000000
0.000000
0.000000
0.000000
0.000000
0.000000
0.000000
0.000000
0.000000
0.000000
0.000000
0.000000
0.000000
0.000000
0.000000
0.000000
0.000000
0.000000
0.000000
0.000000
0.000000
0.000000
0.000000
0.000000
0.000000
0.000000
0.000000
0.000000
0.000000
0.000000
0.000000
0.000000
0.000000
0.000000
0.000000
0.000000
0.000000
0.000000
0.000000
0.000000
0.000000
0.000000
0.000000
0.000000
0.000000
0.000000
0.000000
0.000000
0.000000
0.000000
0.000000
0.000000
0.000000
0.000000
0.000000
0.000000
</DataArray>
<DataArray NumberOfComponents='1' type='Float32' Name='pressure' format='ascii'>
0.000000
0.000000
0.000000
0.000000
0.000000
0.000000
0.000000
0.000000
0.000000
0.000000
0.000000
0.000000
0.000000
0.000000
0.000000
0.000000
0.000000
0.000000
0.000000
0.000000
0.000000
0.000000
0.000000
0.000000
0.000000
0.000000
0.000000
0.000000
0.000000
0.000000
0.000000
0.000000
0.000000
0.000000
0.000000
0.000000
0.000000
0.000000
0.000000
0.000000
0.000000
0.000000
0.000000
0.000000
0.000000
0.000000
0.000000
0.000000
0.000000
0.000000
0.000000
0.000000
0.000000
0.000000
0.000000
0.000000
0.000000
0.000000
0.000000
0.000000
0.000000
0.000000
0.000000
0.000000
0.000000
0.000000
0.000000
0.000000
0.000000
0.000000
0.000000
0.000000
0.000000
0.000000
0.000000
0.000000
0.000000
0.000000
0.000000
0.000000
0.000000
0.000000
0.000000
0.000000
0.000000
0.000000
0.000000
0.000000
0.000000
0.000000
0.000000
0.000000
0.000000
0.000000
0.000000
0.000000
0.000000
0.000000
0.000000
0.000000
0.000000
0.000000
0.000000
0.000000
0.000000
0.000000
0.000000
0.000000
0.000000
0.000000
0.000000
0.000000
0.000000
0.000000
0.000000
0.000000
107.309631
1981.877441
0.000000
1318.309082
947.232788
0.000000
0.000000
0.000000
796.517517
0.000000
107.333267
0.000000
0.000000
0.000000
0.000000
0.000000
909.094788
1050.018799
0.000000
947.878967
0.000000
0.000000
2184.584961
586.104614
0.000000
0.000000
2234.192139
0.000000
0.000000
797.573608
0.000000
21.221069
0.000000
0.000000
0.000000
830.723816
0.000000
0.000000
1366.677002
0.000000
0.000000
82.472572
0.000000
0.000000
0.000000
0.000000
2006.532471
0.000000
0.000000
0.000000
0.000000
2201.494141
1325.422974
480.288635
2569.376709
0.000000
2749.834717
1809.869019
1386.516357
1859.459106
655.876709
0.000000
0.000000
0.000000
88.587440
0.000000
775.376526
222.673264
0.000000
0.000000
1704.796387
625.035461
978.173828
0.000000
0.000000
1843.274048
0.000000
446.782135
401.498657
0.000000
1100.090820
1739.843994
0.000000
3601.134766
0.000000
2327.589600
407.113037
1758.696045
821.072815
0.000000
0.000000
630.853333
0.000000
0.000000
607.047607
0.000000
0.000000
1246.299194
1175.502319
880.195251
0.000000
2309.130615
0.000000
0.000000
796.075989
0.000000
179.106400
0.000000
1685.673950
2121.117432
0.000000
1855.331421
1018.700562
0.000000
1393.513794
0.000000
0.000000
0.000000
0.000000
420.567383
0.000000
1213.333984
0.000000
0.000000
726.017822
0.000000
0.000000
851.540222
459.742920
0.000000
1866.674805
2105.120850
1339.481323
1218.753052
705.150757
1790.085327
1430.863159
427.877472
1307.767456
0.000000
0.000000
0.000000
1219.221558
832.499756
0.000000
319.211487
709.091492
0.000000
432.354034
2866.169189
1434.933105
0.000000
0.000000
2368.806885
0.000000
0.000000
0.000000
1407.333862
645.829163
0.000000
1946.302856
0.000000
0.000000
0.000000
0.000000
0.000000
1846.813477
246.843231
0.000000
0.000000
0.000000
0.000000
0.000000
0.000000
0.000000
0.000000
0.000000
0.000000
0.000000
1159.051392
0.000000
2097.720215
935.473328
0.000000
0.000000
290.883270
0.000000
2120.674805
0.000000
0.000000
63.162315
0.000000
0.000000
0.000000
0.000000
0.000000
0.000000
0.000000
0.000000
0.000000
0.000000
4078.453369
836.779846
0.000000
2263.408691
968.616089
0.000000
0.000000
2286.842285
0.000000
0.000000
0.000000
0.000000
0.000000
508.071503
2326.222412
0.000000
0.000000
0.000000
0.000000
0.000000
0.000000
0.000000
0.000000
1622.635010
0.000000
0.000000
0.000000
0.000000
1368.533081
0.000000
0.000000
0.000000
0.000000
0.000000
0.000000
0.000000
0.000000
1045.844482
1453.355347
0.000000
0.000000
975.828247
0.000000
0.000000
0.000000
1352.140747
0.000000
0.000000
0.000000
1164.527832
0.000000
0.000000
0.000000
1422.851074
1876.479858
0.000000
0.000000
0.000000
276.200317
0.000000
0.000000
0.000000
0.000000
0.000000
0.000000
0.000000
0.000000
0.000000
0.000000
745.410828
1037.905029
0.000000
0.000000
2525.260010
2751.402588
0.000000
0.000000
402.288239
0.000000
0.000000
0.000000
351.918060
0.000000
0.000000
0.000000
0.000000
0.000000
0.000000
0.000000
570.736267
0.000000
0.000000
0.000000
752.352783
671.722717
0.000000
0.000000
2254.989258
811.892029
0.000000
0.000000
3040.208740
2669.860596
0.000000
0.000000
1955.099854
823.340088
0.000000
0.000000
2356.772949
1789.240112
0.000000
0.000000
2923.656738
2080.316406
0.000000
0.000000
2740.405029
895.872009
0.000000
0.000000
4382.501953
5011.036133
0.000000
0.000000
2066.084229
2264.147949
0.000000
0.000000
2268.121338
1052.682983
0.000000
0.000000
1394.729614
1155.767944
0.000000
0.000000
1608.458740
2388.213623
0.000000
0.000000
882.439819
786.236511
0.000000
0.000000
1518.571289
1335.493530
0.000000
0.000000
2319.791260
2366.409912
0.000000
0.000000
1436.254761
213.922180
0.000000
0.000000
1482.754517
1350.390137
2327.252686
0.000000
367.859558
801.554016
0.000000
0.000000
0.000000
0.000000
0.000000
0.000000
0.000000
0.000000
0.000000
0.000000
0.000000
0.000000
0.000000
0.000000
0.000000
0.000000
0.000000
0.000000
0.000000
0.000000
0.000000
0.000000
1532.765625
1568.518677
2472.764404
1041.127075
1178.922852
835.247620
91.254768
0.000000
0.000000
0.000000
0.000000
0.000000
0.000000
0.000000
0.000000
0.000000
0.000000
0.000000
0.000000
0.000000
0.000000
0.000000
0.000000
0.000000
0.000000
0.000000
0.000000
0.000000
0.000000
0.000000
0.000000
0.000000
0.000000
0.000000
0.000000
0.000000
0.000000
0.000000
0.000000
0.000000
0.000000
0.000000
0.000000
0.000000
0.000000
0.000000
0.000000
0.000000
0.000000
0.000000
0.000000
0.000000
0.000000
0.000000
0.000000
0.000000
0.000000
0.000000
0.000000
0.000000
0.000000
0.000000
0.000000
0.000000
0.000000
0.000000
0.000000
0.000000
0.000000
0.000000
0.000000
0.000000
0.000000
0.000000
0.000000
0.000000
0.000000
0.000000
0.000000
0.000000
0.000000
0.000000
</DataArray>
</PointData>
<Cells>
<DataArray type='Int32' Name='connectivity' format='ascii'>
0
1
2
3
4
5
6
7
8
9
10
11
12
13
14
15
16
17
18
19
20
21
22
23
24
25
26
27
28
29
30
31
32
33
34
35
36
37
38
39
40
41
42
43
44
45
46
47
48
49
50
51
52
53
54
55
56
57
58
59
60
61
62
63
64
65
66
67
68
69
70
71
72
73
74
75
76
77
78
79
80
81
82
83
84
85
86
87
88
89
90
91
92
93
94
95
96
97
98
99
100
101
102
103
104
105
106
107
108
109
110
111
112
113
114
115
116
117
118
119
120
121
122
123
124
125
126
127
128
129
130
131
132
133
134
135
136
137
138
139
140
141
142
143
144
145
146
147
148
149
150
151
152
153
154
155
156
157
158
159
160
161
162
163
164
165
166
167
168
169
170
171
172
173
174
175
176
177
178
179
180
181
182
183
184
185
186
187
188
189
190
191
192
193
194
195
196
197
198
199
200
201
202
203
204
205
206
207
208
209
210
211
212
213
214
215
216
217
218
219
220
221
222
223
224
225
226
227
228
229
230
231
232
233
234
235
236
237
238
239
240
241
242
243
244
245
246
247
248
249
250
251
252
253
254
255
256
257
258
259
260
261
262
263
264
265
266
267
268
269
270
271
272
273
274
275
276
277
278
279
280
281
282
283
284
285
286
287
288
289
290
291
292
293
294
295
296
297
298
299
300
301
302
303
304
305
306
307
308
309
310
311
312
313
314
315
316
317
318
319
320
321
322
323
324
325
326
327
328
329
330
331
332
333
334
335
336