<?xml version='1.0' encoding='UTF-8'?>
<VTKFile xmlns='VTK' byte_order='LittleEndian' version='0.1' type='UnstructuredGrid'>
<UnstructuredGrid>
<Piece NumberOfCells='584' NumberOfPoints='584'>
<Points>
<DataArray NumberOfComponents='3' type='Float32' Name='Position' format='ascii'>
-0.075000 -0.075000 0.000000
-0.075000 -0.050000 0.000000
-0.075000 -0.025000 0.000000
-0.075000 0.000000 0.000000
-0.075000 0.025000 0.000000
-0.075000 0.050000 0.000000
-0.075000 0.075000 0.000000
-0.075000 0.100000 0.000000
-0.075000 0.125000 0.000000
-0.075000 0.150000 0.000000
-0.075000 0.175000 0.000000
-0.075000 0.200000 0.000000
-0.075000 0.225000 0.000000
-0.075000 0.250000 0.000000
-0.075000 0.275000 0.000000
-0.075000 0.300000 0.000000
-0.075000 0.325000 0.000000
-0.075000 0.350000 0.000000
-0.075000 0.375000 0.000000
-0.075000 0.400000 0.000000
-0.075000 0.425000 0.000000
-0.075000 0.450000 0.000000
-0.075000 0.475000 0.000000
-0.075000 0.500000 0.000000
-0.075000 0.525000 0.000000
-0.075000 0.550000 0.000000
-0.075000 0.575000 0.000000
-0.075000 0.600000 0.000000
-0.050000 -0.075000 0.000000
-0.050000 -0.050000 0.000000
-0.050000 -0.025000 0.000000
-0.050000 0.000000 0.000000
-0.050000 0.025000 0.000000
-0.050000 0.050000 0.000000
-0.050000 0.075000 0.000000
-0.050000 0.100000 0.000000
-0.050000 0.125000 0.000000
-0.050000 0.150000 0.000000
-0.050000 0.175000 0.000000
-0.050000 0.200000 0.000000
-0.050000 0.225000 0.000000
-0.050000 0.250000 0.000000
-0.050000 0.275000 0.000000
-0.050000 0.300000 0.000000
-0.050000 0.325000 0.000000
-0.050000 0.350000 0.000000
-0.050000 0.375000 0.000000
-0.050000 0.400000 0.000000
-0.050000 0.425000 0.000000
-0.050000 0.450000 0.000000
-0.050000 0.475000 0.000000
-0.050000 0.500000 0.000000
-0.050000 0.525000 0.000000
-0.050000 0.550000 0.000000
-0.050000 0.575000 0.000000
-0.050000 0.600000 0.000000
-0.025000 -0.075000 0.000000
-0.025000 -0.050000 0.000000
-0.025000 -0.025000 0.000000
-0.025000 0.000000 0.000000
-0.025000 0.025000 0.000000
-0.025000 0.050000 0.000000
-0.025000 0.075000 0.000000
-0.025000 0.100000 0.000000
-0.025000 0.125000 0.000000
-0.025000 0.150000 0.000000
-0.025000 0.175000 0.000000
-0.025000 0.200000 0.000000
-0.025000 0.225000 0.000000
-0.025000 0.250000 0.000000
-0.025000 0.275000 0.000000
-0.025000 0.300000 0.000000
-0.025000 0.325000 0.000000
-0.025000 0.350000 0.000000
-0.025000 0.375000 0.000000
-0.025000 0.400000 0.000000
-0.025000 0.425000 0.000000
-0.025000 0.450000 0.000000
-0.025000 0.475000 0.000000
-0.025000 0.500000 0.000000
-0.025000 0.525000 0.000000
-0.025000 0.550000 0.000000
-0.025000 0.575000 0.000000
-0.025000 0.600000 0.000000
0.000000 -0.075000 0.000000
0.000000 -0.050000 0.000000
0.000000 -0.025000 0.000000
0.000000 0.000000 0.000000
0.000000 0.025000 0.000000
0.000000 0.050000 0.000000
0.000000 0.075000 0.000000
0.000000 0.100000 0.000000
0.000000 0.125000 0.000000
0.000000 0.150000 0.000000
0.000000 0.175000 0.000000
0.000000 0.200000 0.000000
0.000000 0.225000 0.000000
0.000000 0.250000 0.000000
0.000000 0.275000 0.000000
0.000000 0.300000 0.000000
0.000000 0.325000 0.000000
0.000000 0.350000 0.000000
0.000000 0.375000 0.000000
0.000000 0.400000 0.000000
0.000000 0.425000 0.000000
0.000000 0.450000 0.000000
0.000000 0.475000 0.000000
0.000000 0.500000 0.000000
0.000000 0.525000 0.000000
0.000000 0.550000 0.000000
0.000000 0.575000 0.000000
0.000000 0.600000 0.000000
0.025000 -0.075000 0.000000
0.025000 -0.050000 0.000000
0.025000 -0.025000 0.000000
0.025000 0.000000 0.000000
0.197263 0.023204 0.000000
0.178521 0.026279 0.000000
0.145682 0.022637 0.000000
0.103828 0.027871 0.000000
0.256442 0.051309 0.000000
0.052154 0.023165 0.000000
0.340515 0.043148 0.000000
0.219859 0.036884 0.000000
0.130470 0.029017 0.000000
0.094008 0.048913 0.000000
0.171830 0.047716 0.000000
0.144367 0.058183 0.000000
0.085377 0.023804 0.000000
0.025205 0.024820 0.000000
0.032711 0.048452 0.000000
0.026867 0.071630 0.000000
0.072302 0.059046 0.000000
0.047309 0.090076 0.000000
0.027678 0.089655 0.000000
0.071027 0.081391 0.000000
0.050000 -0.075000 0.000000
0.050000 -0.050000 0.000000
0.050000 -0.025000 0.000000
0.050000 0.000000 0.000000
0.237613 0.025820 0.000000
0.296232 0.068630 0.000000
0.406006 0.071792 0.000000
0.396142 0.055738 0.000000
0.378236 0.086900 0.000000
0.416256 0.098175 0.000000
0.357317 0.050374 0.000000
0.510738 0.046553 0.000000
0.280015 0.038035 0.000000
0.305336 0.023307 0.000000
0.354413 0.077613 0.000000
0.297978 0.052204 0.000000
0.052239 0.043527 0.000000
0.324790 0.075933 0.000000
0.158297 0.086794 0.000000
0.200173 0.062343 0.000000
0.122989 0.066522 0.000000
0.172449 0.067411 0.000000
0.085259 0.081785 0.000000
0.109255 0.070719 0.000000
0.075000 -0.075000 0.000000
0.075000 -0.050000 0.000000
0.075000 -0.025000 0.000000
0.075000 0.000000 0.000000
0.263850 0.020926 0.000000
0.378632 0.042286 0.000000
0.390882 0.023795 0.000000
0.353943 0.024826 0.000000
0.550116 0.049166 0.000000
0.610742 0.024961 0.000000
0.640965 0.021777 0.000000
0.429473 0.062777 0.000000
0.562306 0.098680 0.000000
0.568836 0.050211 0.000000
0.432269 0.039659 0.000000
0.316031 0.122425 0.000000
0.315928 0.092963 0.000000
0.269632 0.071290 0.000000
0.256406 0.072490 0.000000
0.187083 0.084960 0.000000
0.216410 0.073464 0.000000
0.337840 0.095935 0.000000
0.293192 0.108054 0.000000
0.137940 0.092348 0.000000
0.100000 -0.075000 0.000000
0.100000 -0.050000 0.000000
0.100000 -0.025000 0.000000
0.100000 0.000000 0.000000
0.442961 0.021500 0.000000
0.413503 0.026587 0.000000
0.590132 0.025939 0.000000
0.828671 0.025229 0.000000
0.325115 0.025239 0.000000
0.719775 0.023694 0.000000
0.727355 0.045831 0.000000
0.699107 0.069826 0.000000
0.646318 0.047511 0.000000
0.678169 0.020952 0.000000
0.464838 0.041438 0.000000
0.480658 0.026838 0.000000
0.549300 0.076710 0.000000
0.580585 0.074562 0.000000
0.475125 0.081713 0.000000
0.225336 0.057146 0.000000
0.482149 0.053557 0.000000
0.492351 0.077099 0.000000
0.374017 0.104387 0.000000
0.357694 0.102737 0.000000
0.125000 -0.075000 0.000000
0.125000 -0.050000 0.000000
0.125000 -0.025000 0.000000
0.125000 0.000000 0.000000
0.851352 0.025856 0.000000
0.699158 0.042684 0.000000
0.983400 0.071415 0.000000
0.946605 0.023266 0.000000
0.969315 0.103644 0.000000
0.502138 0.023409 0.000000
0.817374 0.049607 0.000000
0.880273 0.071096 0.000000
0.806966 0.024439 0.000000
0.711857 0.072846 0.000000
0.843747 0.075433 0.000000
0.781122 0.044911 0.000000
0.654543 0.082266 0.000000
0.531044 0.057529 0.000000
0.454949 0.070142 0.000000
0.566842 0.026325 0.000000
0.756344 0.050384 0.000000
0.431292 0.090439 0.000000
0.611067 0.069176 0.000000
0.404543 0.110785 0.000000
0.150000 -0.075000 0.000000
0.150000 -0.050000 0.000000
0.150000 -0.025000 0.000000
0.150000 0.000000 0.000000
0.985392 0.140496 0.000000
0.960668 0.081772 0.000000
0.982502 0.252160 0.000000
0.952850 0.303778 0.000000
0.979574 0.049333 0.000000
0.931584 0.348433 0.000000
0.941131 0.072033 0.000000
0.931886 0.133739 0.000000
0.942025 0.049976 0.000000
0.929383 0.092391 0.000000
0.922713 0.026944 0.000000
0.775202 0.026929 0.000000
0.873848 0.025925 0.000000
0.902935 0.028394 0.000000
0.748596 0.023412 0.000000
0.658918 0.059962 0.000000
0.602201 0.051987 0.000000
0.678710 0.038929 0.000000
0.627643 0.057667 0.000000
0.536645 0.018407 0.000000
0.175000 -0.075000 0.000000
0.175000 -0.050000 0.000000
0.175000 -0.025000 0.000000
0.175000 0.000000 0.000000
0.769424 0.343183 0.000000
0.985906 0.106964 0.000000
0.998442 0.220754 0.000000
1.006298 0.118080 0.000000
1.001543 0.081505 0.000000
0.964402 0.293549 0.000000
0.992132 0.020780 0.000000
0.985063 0.161597 0.000000
0.939792 0.231773 0.000000
1.003331 0.043028 0.000000
0.956254 0.180350 0.000000
0.998993 0.192401 0.000000
0.912018 0.129450 0.000000
0.903095 0.078206 0.000000
0.859454 0.066833 0.000000
0.943527 0.172967 0.000000
0.919266 0.058853 0.000000
0.825481 0.083665 0.000000
0.741641 0.059595 0.000000
0.782487 0.063212 0.000000
0.200000 -0.075000 0.000000
0.200000 -0.050000 0.000000
0.200000 -0.025000 0.000000
0.200000 0.000000 0.000000
0.889721 0.742308 0.000000
0.999500 0.257424 0.000000
0.933197 0.493136 0.000000
0.989535 0.305812 0.000000
0.933948 0.366016 0.000000
0.933014 0.396524 0.000000
0.960074 0.411662 0.000000
1.004742 0.368337 0.000000
0.973303 0.276523 0.000000
0.911261 0.341317 0.000000
0.990016 0.334398 0.000000
0.967173 0.032886 0.000000
0.896852 0.325923 0.000000
0.958610 0.131959 0.000000
0.895649 0.109980 0.000000
0.949843 0.203721 0.000000
0.984259 0.225653 0.000000
0.934374 0.112919 0.000000
0.885756 0.039920 0.000000
0.837690 0.054560 0.000000
0.225000 -0.075000 0.000000
0.225000 -0.050000 0.000000
0.225000 -0.025000 0.000000
0.225000 0.000000 0.000000
0.961190 0.397372 0.000000
0.967746 1.138373 0.000000
0.949685 0.356725 0.000000
0.871070 0.408392 0.000000
0.786256 0.317164 0.000000
0.875991 0.460909 0.000000
0.950122 0.499589 0.000000
0.992164 0.423483 0.000000
0.991303 0.382357 0.000000
0.930407 0.418821 0.000000
0.989680 0.399890 0.000000
0.915040 0.413430 0.000000
0.770985 0.315992 0.000000
0.866510 0.306155 0.000000
0.953271 0.320566 0.000000
0.970191 0.329469 0.000000
0.910851 0.281181 0.000000
0.954475 0.148573 0.000000
0.903570 0.146908 0.000000
0.887854 0.087794 0.000000
0.250000 -0.075000 0.000000
0.250000 -0.050000 0.000000
0.250000 -0.025000 0.000000
0.250000 0.000000 0.000000
0.979055 0.990173 0.000000
0.872331 0.908288 0.000000
0.881484 0.531104 0.000000
0.926437 0.549559 0.000000
0.793953 1.007560 0.000000
0.958519 0.620472 0.000000
0.799440 0.880007 0.000000
0.865854 0.769368 0.000000
0.761252 0.484717 0.000000
0.959983 0.478967 0.000000
0.848683 0.326505 0.000000
0.907773 0.394541 0.000000
0.924974 0.451197 0.000000
0.696814 0.213934 0.000000
0.904066 0.374487 0.000000
0.852802 0.144613 0.000000
0.860760 0.342818 0.000000
1.002246 0.163367 0.000000
0.922370 0.230477 0.000000
0.964317 0.203259 0.000000
0.275000 -0.075000 0.000000
0.275000 -0.050000 0.000000
0.275000 -0.025000 0.000000
0.275000 0.000000 0.000000
0.300000 -0.075000 0.000000
0.300000 -0.050000 0.000000
0.300000 -0.025000 0.000000
0.300000 0.000000 0.000000
0.325000 -0.075000 0.000000
0.325000 -0.050000 0.000000
0.325000 -0.025000 0.000000
0.325000 0.000000 0.000000
0.350000 -0.075000 0.000000
0.350000 -0.050000 0.000000
0.350000 -0.025000 0.000000
0.350000 0.000000 0.000000
0.375000 -0.075000 0.000000
0.375000 -0.050000 0.000000
0.375000 -0.025000 0.000000
0.375000 0.000000 0.000000
0.400000 -0.075000 0.000000
0.400000 -0.050000 0.000000
0.400000 -0.025000 0.000000
0.400000 0.000000 0.000000
0.425000 -0.075000 0.000000
0.425000 -0.050000 0.000000
0.425000 -0.025000 0.000000
0.425000 0.000000 0.000000
0.450000 -0.075000 0.000000
0.450000 -0.050000 0.000000
0.450000 -0.025000 0.000000
0.450000 0.000000 0.000000
0.475000 -0.075000 0.000000
0.475000 -0.050000 0.000000
0.475000 -0.025000 0.000000
0.475000 0.000000 0.000000
0.500000 -0.075000 0.000000
0.500000 -0.050000 0.000000
0.500000 -0.025000 0.000000
0.500000 0.000000 0.000000
0.525000 -0.075000 0.000000
0.525000 -0.050000 0.000000
0.525000 -0.025000 0.000000
0.525000 0.000000 0.000000
0.550000 -0.075000 0.000000
0.550000 -0.050000 0.000000
0.550000 -0.025000 0.000000
0.550000 0.000000 0.000000
0.575000 -0.075000 0.000000
0.575000 -0.050000 0.000000
0.575000 -0.025000 0.000000
0.575000 0.000000 0.000000
0.600000 -0.075000 0.000000
0.600000 -0.050000 0.000000
0.600000 -0.025000 0.000000
0.600000 0.000000 0.000000
0.625000 -0.075000 0.000000
0.625000 -0.050000 0.000000
0.625000 -0.025000 0.000000
0.625000 0.000000 0.000000
0.650000 -0.075000 0.000000
0.650000 -0.050000 0.000000
0.650000 -0.025000 0.000000
0.650000 0.000000 0.000000
0.675000 -0.075000 0.000000
0.675000 -0.050000 0.000000
0.675000 -0.025000 0.000000
0.675000 0.000000 0.000000
0.700000 -0.075000 0.000000
0.700000 -0.050000 0.000000
0.700000 -0.025000 0.000000
0.700000 0.000000 0.000000
0.725000 -0.075000 0.000000
0.725000 -0.050000 0.000000
0.725000 -0.025000 0.000000
0.725000 0.000000 0.000000
0.750000 -0.075000 0.000000
0.750000 -0.050000 0.000000
0.750000 -0.025000 0.000000
0.750000 0.000000 0.000000
0.775000 -0.075000 0.000000
0.775000 -0.050000 0.000000
0.775000 -0.025000 0.000000
0.775000 0.000000 0.000000
0.800000 -0.075000 0.000000
0.800000 -0.050000 0.000000
0.800000 -0.025000 0.000000
0.800000 0.000000 0.000000
0.825000 -0.075000 0.000000
0.825000 -0.050000 0.000000
0.825000 -0.025000 0.000000
0.825000 0.000000 0.000000
0.850000 -0.075000 0.000000
0.850000 -0.050000 0.000000
0.850000 -0.025000 0.000000
0.850000 0.000000 0.000000
0.875000 -0.075000 0.000000
0.875000 -0.050000 0.000000
0.875000 -0.025000 0.000000
0.875000 0.000000 0.000000
0.900000 -0.075000 0.000000
0.900000 -0.050000 0.000000
0.900000 -0.025000 0.000000
0.900000 0.000000 0.000000
0.925000 -0.075000 0.000000
0.925000 -0.050000 0.000000
0.925000 -0.025000 0.000000
0.925000 0.000000 0.000000
0.950000 -0.075000 0.000000
0.950000 -0.050000 0.000000
0.950000 -0.025000 0.000000
0.950000 0.000000 0.000000
0.975000 -0.075000 0.000000
0.975000 -0.050000 0.000000
0.975000 -0.025000 0.000000
0.975000 0.000000 0.000000
1.000000 -0.075000 0.000000
1.000000 -0.050000 0.000000
1.000000 -0.025000 0.000000
1.000000 0.000000 0.000000
1.025000 -0.075000 0.000000
1.025000 -0.050000 0.000000
1.025000 -0.025000 0.000000
1.025000 0.000000 0.000000
1.025000 0.025000 0.000000
1.025000 0.050000 0.000000
1.025000 0.075000 0.000000
1.025000 0.100000 0.000000
1.025000 0.125000 0.000000
1.025000 0.150000 0.000000
1.025000 0.175000 0.000000
1.025000 0.200000 0.000000
1.025000 0.225000 0.000000
1.025000 0.250000 0.000000
1.025000 0.275000 0.000000
1.025000 0.300000 0.000000
1.025000 0.325000 0.000000
1.025000 0.350000 0.000000
1.025000 0.375000 0.000000
1.025000 0.400000 0.000000
1.025000 0.425000 0.000000
1.025000 0.450000 0.000000
1.025000 0.475000 0.000000
1.025000 0.500000 0.000000
1.025000 0.525000 0.000000
1.025000 0.550000 0.000000
1.025000 0.575000 0.000000
1.025000 0.600000 0.000000
1.050000 -0.075000 0.000000
1.050000 -0.050000 0.000000
1.050000 -0.025000 0.000000
1.050000 0.000000 0.000000
1.050000 0.025000 0.000000
1.050000 0.050000 0.000000
1.050000 0.075000 0.000000
1.050000 0.100000 0.000000
1.050000 0.125000 0.000000
1.050000 0.150000 0.000000
1.050000 0.175000 0.000000
1.050000 0.200000 0.000000
1.050000 0.225000 0.000000
1.050000 0.250000 0.000000
1.050000 0.275000 0.000000
1.050000 0.300000 0.000000
1.050000 0.325000 0.000000
1.050000 0.350000 0.000000
1.050000 0.375000 0.000000
1.050000 0.400000 0.000000
1.050000 0.425000 0.000000
1.050000 0.450000 0.000000
1.050000 0.475000 0.000000
1.050000 0.500000 0.000000
1.050000 0.525000 0.000000
1.050000 0.550000 0.000000
1.050000 0.575000 0.000000
1.050000 0.600000 0.000000
1.075000 -0.075000 0.000000
1.075000 -0.050000 0.000000
1.075000 -0.025000 0.000000
1.075000 0.000000 0.000000
1.075000 0.025000 0.000000
1.075000 0.050000 0.000000
1.075000 0.075000 0.000000
1.075000 0.100000 0.000000
1.075000 0.125000 0.000000
1.075000 0.150000 0.000000
1.075000 0.175000 0.000000
1.075000 0.200000 0.000000
1.075000 0.225000 0.000000
1.075000 0.250000 0.000000
1.075000 0.275000 0.000000
1.075000 0.300000 0.000000
1.075000 0.325000 0.000000
1.075000 0.350000 0.000000
1.075000 0.375000 0.000000
1.075000 0.400000 0.000000
1.075000 0.425000 0.000000
1.075000 0.450000 0.000000
1.075000 0.475000 0.000000
1.075000 0.500000 0.000000
1.075000 0.525000 0.000000
1.075000 0.550000 0.000000
1.075000 0.575000 0.000000
1.075000 0.600000 0.000000
1.100000 -0.075000 0.000000
1.100000 -0.050000 0.000000
1.100000 -0.025000 0.000000
1.100000 0.000000 0.000000
1.100000 0.025000 0.000000
1.100000 0.050000 0.000000
1.100000 0.075000 0.000000
1.100000 0.100000 0.000000
1.100000 0.125000 0.000000
1.100000 0.150000 0.000000
1.100000 0.175000 0.000000
1.100000 0.200000 0.000000
1.100000 0.225000 0.000000
1.100000 0.250000 0.000000
1.100000 0.275000 0.000000
1.100000 0.300000 0.000000
1.100000 0.325000 0.000000
1.100000 0.350000 0.000000
1.100000 0.375000 0.000000
1.100000 0.400000 0.000000
1.100000 0.425000 0.000000
1.100000 0.450000 0.000000
1.100000 0.475000 0.000000
1.100000 0.500000 0.000000
1.100000 0.525000 0.000000
1.100000 0.550000 0.000000
1.100000 0.575000 0.000000
1.100000 0.600000 0.000000
</DataArray>
</Points>
<PointData>
<DataArray NumberOfComponents='1' type='Int32' Name='ParticleType' format='ascii'>
3
3
3
3
3
3
3
3
3
3
3
3
3
3
3
3
3
3
3
3
3
3
3
3
3
3
2
2
3
3
3
3
3
3
3
3
3
3
3
3
3
3
3
3
3
3
3
3
3
3
3
3
3
3
2
2
3
3
2
2
2
2
2
2
2
2
2
2
2
2
2
2
2
2
2
2
2
2
2
2
2
2
2
2
3
3
2
2
2
2
2
2
2
2
2
2
2
2
2
2
2
2
2
2
2
2
2
2
2
2
2
2
3
3
2
2
0
0
0
0
0
0
0
0
0
0
0
0
0
0
0
0
0
0
0
0
3
3
2
2
0
0
0
0
0
0
0
0
0
0
0
0
0
0
0
0
0
0
0
0
3
3
2
2
0
0
0
0
0
0
0
0
0
0
0
0
0
0
0
0
0
0
0
0
3
3
2
2
0
0
0
0
0
0
0
0
0
0
0
0
0
0
0
0
0
0
0
0
3
3
2
2
0
0
0
0
0
0
0
0
0
0
0
0
0
0
0
0
0
0
0
0
3
3
2
2
0
0
0
0
0
0
0
0
0
0
0
0
0
0
0
0
0
0
0
0
3
3
2
2
0
0
0
0
0
0
0
0
0
0
0
0
0
0
0
0
0
0
0
0
3
3
2
2
0
0
0
0
0
0
0
0
0
0
0
0
0
0
0
0
0
0
0
0
3
3
2
2
0
0
0
0
0
0
0
0
0
0
0
0
0
0
0
0
0
0
0
0
3
3
2
2
0
0
0
0
0
0
0
0
0
0
0
0
0
0
0
0
0
0
0
0
3
3
2
2
3
3
2
2
3
3
2
2
3
3
2
2
3
3
2
2
3
3
2
2
3
3
2
2
3
3
2
2
3
3
2
2
3
3
2
2
3
3
2
2
3
3
2
2
3
3
2
2
3
3
2
2
3
3
2
2
3
3
2
2
3
3
2
2
3
3
2
2
3
3
2
2
3
3
2
2
3
3
2
2
3
3
2
2
3
3
2
2
3
3
2
2
3
3
2
2
3
3
2
2
3
3
2
2
3
3
2
2
3
3
2
2
3
3
2
2
3
3
2
2
2
2
2
2
2
2
2
2
2
2
2
2
2
2
2
2
2
2
2
2
2
2
2
2
3
3
2
2
2
2
2
2
2
2
2
2
2
2
2
2
2
2
2
2
2
2
2
2
2
2
2
2
3
3
3
3
3
3
3
3
3
3
3
3
3
3
3
3
3
3
3
3
3
3
3
3
3
3
2
2
3
3
3
3
3
3
3
3
3
3
3
3
3
3
3
3
3
3
3
3
3
3
3
3
3
3
2
2
</DataArray>
<DataArray NumberOfComponents='1' type='Float32' Name='Velocity' format='ascii'>
0.000000
0.000000
0.000000
0.000000
0.000000
0.000000
0.000000
0.000000
0.000000
0.000000
0.000000
0.000000
0.000000
0.000000
0.000000
0.000000
0.000000
0.000000
0.000000
0.000000
0.000000
0.000000
0.000000
0.000000
0.000000
0.000000
0.000000
0.000000
0.000000
0.000000
0.000000
0.000000
0.000000
0.000000
0.000000
0.000000
0.000000
0.000000
0.000000
0.000000
0.000000
0.000000
0.000000
0.000000
0.000000
0.000000
0.000000
0.000000
0.000000
0.000000
0.000000
0.000000
0.000000
0.000000
0.000000
0.000000
0.000000
0.000000
0.000000
0.000000
0.000000
0.000000
0.000000
0.000000
0.000000
0.000000
0.000000
0.000000
0.000000
0.000000
0.000000
0.000000
0.000000
0.000000
0.000000
0.000000
0.000000
0.000000
0.000000
0.000000
0.000000
0.000000
0.000000
0.000000
0.000000
0.000000
0.000000
0.000000
0.000000
0.000000
0.000000
0.000000
0.000000
0.000000
0.000000
0.000000
0.000000
0.000000
0.000000
0.000000
0.000000
0.000000
0.000000
0.000000
0.000000
0.000000
0.000000
0.000000
0.000000
0.000000
0.000000
0.000000
0.000000
0.000000
0.000000
0.000000
0.280417
0.279395
0.154908
0.227876
0.710224
0.295949
0.799647
0.409123
0.098585
0.272653
0.295567
0.345934
0.231273
0.119480
0.304483
0.099812
0.151638
0.468656
0.344349
0.338993
0.000000
0.000000
0.000000
0.000000
0.740854
0.778297
1.199735
0.731721
0.827234
1.329604
0.884926
1.171516
0.810852
0.608296
0.959374
0.509044
0.156983
0.696574
0.439727
0.342534
0.245929
0.366686
0.298642
0.212013
0.000000
0.000000
0.000000
0.000000
0.409352
0.760868
0.803074
0.876481
1.306031
0.899112
1.310462
0.992337
1.343592
1.186610
0.658332
0.749707
0.851056
0.509924
0.224910
0.472121
0.426231
0.881266
0.413745
0.433511
0.000000
0.000000
0.000000
0.000000
0.923990
0.836294
1.088023
1.098706
0.328810
1.335296
1.356327
1.398719
1.275591
1.242603
0.875361
0.880462
0.962803
1.479527
1.232746
0.445997
1.022539
1.204184
0.667488
0.891391
0.000000
0.000000
0.000000
0.000000
1.061940
1.624064
0.598263
0.262755
0.592013
1.028865
1.780332
1.333541
1.138600
1.507796
1.452872
1.106978
1.405782
1.191824
1.354381
1.252162
1.656245
1.166039
1.539977
1.027079
0.000000
0.000000
0.000000
0.000000
1.168504
0.974281
1.708158
1.177423
0.317347
1.145663
0.487043
0.784682
0.991579
1.399037
0.808893
1.361003
1.167269
0.632152
1.333701
1.146457
1.379830
1.403720
1.229033
0.456746
0.000000
0.000000
0.000000
0.000000
1.102992
0.620195
0.761323
0.648291
0.769248
1.055269
0.051047
0.635299
0.762233
0.083645
0.965395
0.850753
0.813612
0.853443
1.610455
1.061213
0.779239
1.802156
1.450588
1.596279
0.000000
0.000000
0.000000
0.000000
0.838373
0.792378
0.252042
0.955345
0.728756
0.654798
0.619189
0.584397
1.224567
0.357182
0.975680
0.609497
0.762828
0.955619
0.944735
1.027531
1.036844
1.227679
1.239648
1.530662
0.000000
0.000000
0.000000
0.000000
1.071578
1.800508
0.610180
0.465216
1.199806
0.432909
0.306707
0.828424
0.708441
0.497632
0.586996
0.492277
0.943937
0.560636
0.833302
0.870041
0.705481
1.010433
0.650496
1.456186
0.000000
0.000000
0.000000
0.000000
1.071478
1.163777
0.517080
0.463615
1.404591
0.546534
1.150189
0.864913
0.736850
0.281180
0.608906
0.636845
0.379522
1.353516
0.465337
0.907019
1.079997
0.511392
0.546338
0.975549
0.000000
0.000000
0.000000
0.000000
0.000000
0.000000
0.000000
0.000000
0.000000
0.000000
0.000000
0.000000
0.000000
0.000000
0.000000
0.000000
0.000000
0.000000
0.000000
0.000000
0.000000
0.000000
0.000000
0.000000
0.000000
0.000000
0.000000
0.000000
0.000000
0.000000
0.000000
0.000000
0.000000
0.000000
0.000000
0.000000
0.000000
0.000000
0.000000
0.000000
0.000000
0.000000
0.000000
0.000000
0.000000
0.000000
0.000000
0.000000
0.000000
0.000000
0.000000
0.000000
0.000000
0.000000
0.000000
0.000000
0.000000
0.000000
0.000000
0.000000
0.000000
0.000000
0.000000
0.000000
0.000000
0.000000
0.000000
0.000000
0.000000
0.000000
0.000000
0.000000
0.000000
0.000000
0.000000
0.000000
0.000000
0.000000
0.000000
0.000000
0.000000
0.000000
0.000000
0.000000
0.000000
0.000000
0.000000
0.000000
0.000000
0.000000
0.000000
0.000000
0.000000
0.000000
0.000000
0.000000
0.000000
0.000000
0.000000
0.000000
0.000000
0.000000
0.000000
0.000000
0.000000
0.000000
0.000000
0.000000
0.000000
0.000000
0.000000
0.000000
0.000000
0.000000
0.000000
0.000000
0.000000
0.000000
0.000000
0.000000
0.000000
0.000000
0.000000
0.000000
0.000000
0.000000
0.000000
0.000000
0.000000
0.000000
0.000000
0.000000
0.000000
0.000000
0.000000
0.000000
0.000000
0.000000
0.000000
0.000000
0.000000
0.000000
0.000000
0.000000
0.000000
0.000000
0.000000
0.000000
0.000000
0.000000
0.000000
0.000000
0.000000
0.000000
0.000000
0.000000
0.000000
0.000000
0.000000
0.000000
0.000000
0.000000
0.000000
0.000000
0.000000
0.000000
0.000000
0.000000
0.000000
0.000000
0.000000
0.000000
0.000000
0.000000
0.000000
0.000000
0.000000
0.000000
0.000000
0.000000
0.000000
0.000000
0.000000
0.000000
0.000000
0.000000
0.000000
0.000000
0.000000
0.000000
0.000000
0.000000
0.000000
0.000000
0.000000
0.000000
0.000000
0.000000
0.000000
0.000000
0.000000
0.000000
0.000000
0.000000
0.000000
0.000000
0.000000
0.000000
0.000000
0.000000
0.000000
0.000000
0.000000
0.000000
0.000000
0.000000
0.000000
0.000000
0.000000
0.000000
0.000000
0.000000
0.000000
0.000000
0.000000
0.000000
0.000000
0.000000
0.000000
0.000000
0.000000
0.000000
</DataArray>
<DataArray NumberOfComponents='1' type='Float32' Name='pressure' format='ascii'>
0.000000
0.000000
0.000000
0.000000
0.000000
0.000000
0.000000
0.000000
0.000000
0.000000
0.000000
0.000000
0.000000
0.000000
0.000000
0.000000
0.000000
0.000000
0.000000
0.000000
0.000000
0.000000
0.000000
0.000000
0.000000
0.000000
0.000000
0.000000
0.000000
0.000000
0.000000
0.000000
0.000000
0.000000
0.000000
0.000000
0.000000
0.000000
0.000000
0.000000
0.000000
0.000000
0.000000
0.000000
0.000000
0.000000
0.000000
0.000000
0.000000
0.000000
0.000000
0.000000
0.000000
0.000000
0.000000
0.000000
0.000000
0.000000
576.565308
371.147461
0.000000
0.000000
0.000000
0.000000
0.000000
0.000000
0.000000
0.000000
0.000000
0.000000
0.000000
0.000000
0.000000
0.000000
0.000000
0.000000
0.000000
0.000000
0.000000
0.000000
0.000000
0.000000
0.000000
0.000000
0.000000
0.000000
779.431702
598.081543
0.000000
0.000000
0.000000
0.000000
0.000000
0.000000
0.000000
0.000000
0.000000
0.000000
0.000000
0.000000
0.000000
0.000000
0.000000
0.000000
0.000000
0.000000
0.000000
0.000000
0.000000
0.000000
0.000000
0.000000
0.000000
0.000000
1063.966675
1378.185547
774.085632
764.015137
814.236328
946.258362
545.877441
755.636414
416.670197
1203.836426
0.000000
0.000000
0.000000
0.000000
1110.423340
581.369873
998.718750
983.709717
214.423874
0.000000
0.000000
0.000000
0.000000
0.000000
1555.715210
1869.968384
0.000000
0.000000
0.000000
0.000000
1389.130615
0.000000
1337.924316
0.000000
0.000000
0.000000
1043.200073
0.000000
634.678955
0.000000
0.000000
273.328430
449.011536
590.863647
0.000000
0.000000
0.000000
0.000000
617.947998
0.000000
0.000000
1455.408447
462.500610
747.766541
117.331825
0.000000
0.000000
0.000000
0.000000
409.418823
0.000000
0.000000
0.000000
227.994995
0.000000
0.000000
0.000000
2294.017578
0.000000
0.000000
0.000000
0.000000
43.563313
34.325134
627.026367
1349.766602
780.946960
1695.027344
1154.854004
0.000000
714.848083
0.000000
234.785751
2786.744873
685.875732
1009.879639
0.000000
0.000000
0.000000
285.144928
0.000000
0.000000
0.000000
487.247314
0.000000
0.000000
0.000000
495.265472
159.859726
0.000000
558.666138
2776.411865
3151.762939
0.000000
0.000000
845.378296
0.000000
0.000000
0.000000
513.555054
0.000000
0.000000
0.000000
0.000000
176.923737
0.000000
0.000000
0.000000
0.000000
0.000000
1424.219238
863.727600
0.000000
0.000000
0.000000
0.000000
594.752686
300.840637
1418.284546
47.804737
0.000000
0.000000
2864.497803
482.217133
2783.922852
2507.202881
0.000000
0.000000
0.000000
1076.647461
0.000000
0.000000
0.000000
0.000000
509.207825
967.156616
0.000000
2818.176758
0.000000
1221.797974
0.000000
0.000000
1992.438110
0.000000
0.000000
573.997070
0.000000
0.000000
0.000000
1484.115234
1212.255127
0.000000
0.000000
0.000000
0.000000
0.000000
0.000000
0.000000
1469.064453
1735.943848
0.000000
0.000000
0.000000
0.000000
124.127998
430.457977
0.000000
0.000000
0.000000
0.000000
0.000000
1671.128662
0.000000
1784.058350
0.000000
0.000000
0.000000
8.935519
647.024536
1437.538696
0.000000
0.000000
90.066109
0.000000
0.000000
0.000000
0.000000
0.000000
0.000000
0.000000
0.000000
0.000000
0.000000
0.000000
0.000000
0.000000
0.000000
0.000000
0.000000
0.000000
0.000000
0.000000
0.000000
0.000000
0.000000
0.000000
1605.503052
571.216309
0.000000
0.000000
0.000000
0.000000
0.000000
0.000000
0.000000
0.000000
0.000000
0.000000
0.000000
0.000000
0.000000
0.000000
0.000000
0.000000
0.000000
0.000000
0.000000
0.000000
0.000000
0.000000
2059.674561
550.193420
0.000000
0.000000
1778.537842
1334.848267
0.000000
0.000000
1230.916870
3228.041016
0.000000
0.000000
627.373840
0.000000
0.000000
0.000000
91.482483
0.000000
0.000000
0.000000
930.737183
38.983257
0.000000
0.000000
1428.763428
2630.922363
0.000000
0.000000
2486.629639
1847.596680
0.000000
0.000000
906.064392
0.000000
0.000000
0.000000
2530.220703
2343.970459
0.000000
0.000000
4174.422852
2241.241699
0.000000
0.000000
3726.603271
1863.404907
0.000000
0.000000
780.583313
1065.258789
0.000000
0.000000
631.615906
1384.997314
0.000000
0.000000
1022.199158
0.000000
0.000000
0.000000
1850.694946
0.000000
0.000000
0.000000
2575.032959
2324.854004
0.000000
0.000000
406.495575
0.000000
0.000000
0.000000
277.243561
0.000000
0.000000
0.000000
107.683083
0.000000
0.000000
0.000000
0.000000
0.000000
0.000000
0.000000
0.000000
0.000000
0.000000
0.000000
88.002655
1824.298462
0.000000
0.000000
210.617966
1276.447021
0.000000
0.000000
173.614441
741.360413
0.000000
0.000000
0.000000
0.000000
0.000000
0.000000
284.911224
476.176605
0.000000
0.000000
1996.630005
2115.001221
0.000000
0.000000
2123.156006
418.476501
0.000000
0.000000
2879.243408
2208.350830
0.000000
0.000000
1278.450073
397.449188
0.000000
419.204712
0.000000
1814.903564
3925.886230
0.000000
0.000000
0.000000
0.000000
0.000000
0.000000
0.000000
0.000000
0.000000
1301.420898
0.000000
0.000000
0.000000
0.000000
0.000000
0.000000
0.000000
0.000000
0.000000
0.000000
0.000000
975.996948
742.587097
581.555359
1713.897461
1672.537231
3199.534668
4167.550293
1202.197998
232.851990
0.000000
0.000000
0.000000
0.000000
0.000000
0.000000
655.277466
1913.730347
0.000000
0.000000
0.000000
0.000000
0.000000
0.000000
0.000000
0.000000
0.000000
0.000000
0.000000
0.000000
0.000000
0.000000
0.000000
0.000000
0.000000
0.000000
0.000000
0.000000
0.000000
0.000000
0.000000
0.000000
0.000000
0.000000
0.000000
0.000000
0.000000
0.000000
0.000000
0.000000
0.000000
0.000000
0.000000
0.000000
0.000000
0.000000
0.000000
0.000000
0.000000
0.000000
0.000000
0.000000
0.000000
0.000000
0.000000
0.000000
0.000000
0.000000
0.000000
0.000000
0.000000
0.000000
0.000000
0.000000
0.000000
0.000000
0.000000
0.000000
0.000000
0.000000
0.000000
0.000000
0.000000
</DataArray>
</PointData>
<Cells>
<DataArray type='Int32' Name='connectivity' format='ascii'>
0
1
2
3
4
5
6
7
8
9
10
11
12
13
14
15
16
17
18
19
20
21
22
23
24
25
26
27
28
29
30
31
32
33
34
35
36
37
38
39
40
41
42
43
44
45
46
47
48
49
50
51
52
53
54
55
56
57
58
59
60
61
62
63
64
65
66
67
68
69
70
71
72
73
74
75
76
77
78
79
80
81
82
83
84
85
86
87
88
89
90
91
92
93
94
95
96
97
98
99
100
101
102
103
104
105
106
107
108
109
110
111
112
113
114
115
116
117
118
119
120
121
122
123
124
125
126
127
128
129
130
131
132
133
134
135
136
137
138
139
140
141
142
143
144
145
146
147
148
149
150
151
152
153
154
155
156
157
158
159
160
161
162
163
164
165
166
167
168
169
170
171
172
173
174
175
176
177
178
179
180
181
182
183
184
185
186
187
188
189
190
191
192
193
194
195
196
197
198
199
200
201
202
203
204
205
206
207
208
209
210
211
212
213
214
215
216
217
218
219
220
221
222
223
224
225
226
227
228
229
230
231
232
233
234
235
236
237
238
239
240
241
242
243
244
245
246
247
248
249
250
251
252
253
254
255
256
257
258
259
260
261
262
263
264
265
266
267
268
269
270
271
272
273
274
275
276
277
278
279
280
281
282
283
284
285
286
287
288
289
290
291
292
293
294
295
296
297
298
299
300
301
302
303
304
305
306
307
308
309
310
311
312
313
314
315
316
317
318
319
320
321
322
323
324
325
326
327
328
329
330
331
332
333
334
335
336
337
338
339
340
341
342
343
344