<?xml version='1.0' encoding='UTF-8'?>
<VTKFile xmlns='VTK' byte_order='LittleEndian' version='0.1' type='UnstructuredGrid'>
<UnstructuredGrid>
<Piece NumberOfCells='584' NumberOfPoints='584'>
<Points>
<DataArray NumberOfComponents='3' type='Float32' Name='Position' format='ascii'>
-0.075000 -0.075000 0.000000
-0.075000 -0.050000 0.000000
-0.075000 -0.025000 0.000000
-0.075000 0.000000 0.000000
-0.075000 0.025000 0.000000
-0.075000 0.050000 0.000000
-0.075000 0.075000 0.000000
-0.075000 0.100000 0.000000
-0.075000 0.125000 0.000000
-0.075000 0.150000 0.000000
-0.075000 0.175000 0.000000
-0.075000 0.200000 0.000000
-0.075000 0.225000 0.000000
-0.075000 0.250000 0.000000
-0.075000 0.275000 0.000000
-0.075000 0.300000 0.000000
-0.075000 0.325000 0.000000
-0.075000 0.350000 0.000000
-0.075000 0.375000 0.000000
-0.075000 0.400000 0.000000
-0.075000 0.425000 0.000000
-0.075000 0.450000 0.000000
-0.075000 0.475000 0.000000
-0.075000 0.500000 0.000000
-0.075000 0.525000 0.000000
-0.075000 0.550000 0.000000
-0.075000 0.575000 0.000000
-0.075000 0.600000 0.000000
-0.050000 -0.075000 0.000000
-0.050000 -0.050000 0.000000
-0.050000 -0.025000 0.000000
-0.050000 0.000000 0.000000
-0.050000 0.025000 0.000000
-0.050000 0.050000 0.000000
-0.050000 0.075000 0.000000
-0.050000 0.100000 0.000000
-0.050000 0.125000 0.000000
-0.050000 0.150000 0.000000
-0.050000 0.175000 0.000000
-0.050000 0.200000 0.000000
-0.050000 0.225000 0.000000
-0.050000 0.250000 0.000000
-0.050000 0.275000 0.000000
-0.050000 0.300000 0.000000
-0.050000 0.325000 0.000000
-0.050000 0.350000 0.000000
-0.050000 0.375000 0.000000
-0.050000 0.400000 0.000000
-0.050000 0.425000 0.000000
-0.050000 0.450000 0.000000
-0.050000 0.475000 0.000000
-0.050000 0.500000 0.000000
-0.050000 0.525000 0.000000
-0.050000 0.550000 0.000000
-0.050000 0.575000 0.000000
-0.050000 0.600000 0.000000
-0.025000 -0.075000 0.000000
-0.025000 -0.050000 0.000000
-0.025000 -0.025000 0.000000
-0.025000 0.000000 0.000000
-0.025000 0.025000 0.000000
-0.025000 0.050000 0.000000
-0.025000 0.075000 0.000000
-0.025000 0.100000 0.000000
-0.025000 0.125000 0.000000
-0.025000 0.150000 0.000000
-0.025000 0.175000 0.000000
-0.025000 0.200000 0.000000
-0.025000 0.225000 0.000000
-0.025000 0.250000 0.000000
-0.025000 0.275000 0.000000
-0.025000 0.300000 0.000000
-0.025000 0.325000 0.000000
-0.025000 0.350000 0.000000
-0.025000 0.375000 0.000000
-0.025000 0.400000 0.000000
-0.025000 0.425000 0.000000
-0.025000 0.450000 0.000000
-0.025000 0.475000 0.000000
-0.025000 0.500000 0.000000
-0.025000 0.525000 0.000000
-0.025000 0.550000 0.000000
-0.025000 0.575000 0.000000
-0.025000 0.600000 0.000000
0.000000 -0.075000 0.000000
0.000000 -0.050000 0.000000
0.000000 -0.025000 0.000000
0.000000 0.000000 0.000000
0.000000 0.025000 0.000000
0.000000 0.050000 0.000000
0.000000 0.075000 0.000000
0.000000 0.100000 0.000000
0.000000 0.125000 0.000000
0.000000 0.150000 0.000000
0.000000 0.175000 0.000000
0.000000 0.200000 0.000000
0.000000 0.225000 0.000000
0.000000 0.250000 0.000000
0.000000 0.275000 0.000000
0.000000 0.300000 0.000000
0.000000 0.325000 0.000000
0.000000 0.350000 0.000000
0.000000 0.375000 0.000000
0.000000 0.400000 0.000000
0.000000 0.425000 0.000000
0.000000 0.450000 0.000000
0.000000 0.475000 0.000000
0.000000 0.500000 0.000000
0.000000 0.525000 0.000000
0.000000 0.550000 0.000000
0.000000 0.575000 0.000000
0.000000 0.600000 0.000000
0.025000 -0.075000 0.000000
0.025000 -0.050000 0.000000
0.025000 -0.025000 0.000000
0.025000 0.000000 0.000000
0.121118 0.054465 0.000000
0.186932 0.121801 0.000000
0.134470 0.020909 0.000000
0.175006 0.024019 0.000000
0.233901 0.041392 0.000000
0.099666 0.109586 0.000000
0.298541 0.021530 0.000000
0.195554 0.028792 0.000000
0.171063 0.052646 0.000000
0.035511 0.255628 0.000000
0.216899 0.022707 0.000000
0.051433 0.179358 0.000000
0.109737 0.030606 0.000000
0.071145 0.053456 0.000000
0.112402 0.130220 0.000000
0.051529 0.041034 0.000000
0.039678 0.200522 0.000000
0.091338 0.031255 0.000000
0.074183 0.192728 0.000000
0.093700 0.059081 0.000000
0.050000 -0.075000 0.000000
0.050000 -0.050000 0.000000
0.050000 -0.025000 0.000000
0.050000 0.000000 0.000000
0.133764 0.204136 0.000000
0.074340 0.143564 0.000000
0.061858 0.224135 0.000000
0.025410 0.023437 0.000000
0.030079 0.155531 0.000000
0.433589 0.056175 0.000000
0.164309 0.108437 0.000000
0.585288 0.057183 0.000000
0.136313 0.159524 0.000000
0.226051 0.161994 0.000000
0.080361 0.102199 0.000000
0.226621 0.094143 0.000000
0.029331 0.276696 0.000000
0.136304 0.182975 0.000000
0.063400 0.077521 0.000000
0.021482 0.072902 0.000000
0.180673 0.084395 0.000000
0.202244 0.082578 0.000000
0.067460 0.318380 0.000000
0.043551 0.073407 0.000000
0.075000 -0.075000 0.000000
0.075000 -0.050000 0.000000
0.075000 -0.025000 0.000000
0.075000 0.000000 0.000000
0.109468 0.157051 0.000000
0.157124 0.087661 0.000000
0.383443 0.040809 0.000000
0.321924 0.025165 0.000000
0.462567 0.112496 0.000000
0.667237 0.025877 0.000000
0.689311 0.043846 0.000000
0.038104 0.142727 0.000000
0.409292 0.111492 0.000000
0.658757 0.041824 0.000000
0.438413 0.021868 0.000000
0.092600 0.144246 0.000000
0.193567 0.058700 0.000000
0.204576 0.116515 0.000000
0.237107 0.071014 0.000000
0.054278 0.104506 0.000000
0.141058 0.107522 0.000000
0.030652 0.043190 0.000000
0.151946 0.060328 0.000000
0.125958 0.072819 0.000000
0.100000 -0.075000 0.000000
0.100000 -0.050000 0.000000
0.100000 -0.025000 0.000000
0.100000 0.000000 0.000000
0.483462 0.023639 0.000000
0.359650 0.139276 0.000000
0.489619 0.055478 0.000000
0.817391 0.025792 0.000000
0.217289 0.063553 0.000000
0.747448 0.027235 0.000000
0.649019 0.089886 0.000000
0.256007 0.049951 0.000000
0.701687 0.021352 0.000000
0.712945 0.047716 0.000000
0.455973 0.033736 0.000000
0.329877 0.117521 0.000000
0.547193 0.040756 0.000000
0.611076 0.025924 0.000000
0.108768 0.194592 0.000000
0.248726 0.023675 0.000000
0.532869 0.021997 0.000000
0.266764 0.073495 0.000000
0.356942 0.078103 0.000000
0.226482 0.123437 0.000000
0.125000 -0.075000 0.000000
0.125000 -0.050000 0.000000
0.125000 -0.025000 0.000000
0.125000 0.000000 0.000000
0.730704 0.080351 0.000000
0.715397 0.158275 0.000000
0.990587 0.073988 0.000000
0.833653 0.033036 0.000000
0.581861 0.072896 0.000000
0.586315 0.026514 0.000000
0.219110 0.148041 0.000000
0.512286 0.069500 0.000000
0.786167 0.086926 0.000000
0.764047 0.060980 0.000000
0.878834 0.047349 0.000000
0.542894 0.059660 0.000000
0.501566 0.026832 0.000000
0.495188 0.090570 0.000000
0.407463 0.023531 0.000000
0.485268 0.103773 0.000000
0.322732 0.138099 0.000000
0.120807 0.094794 0.000000
0.473010 0.071814 0.000000
0.018211 0.187302 0.000000
0.150000 -0.075000 0.000000
0.150000 -0.050000 0.000000
0.150000 -0.025000 0.000000
0.150000 0.000000 0.000000
0.242802 0.112654 0.000000
0.962076 0.027999 0.000000
0.771044 0.099805 0.000000
0.285392 0.050760 0.000000
0.884614 0.022308 0.000000
0.150185 0.036428 0.000000
0.919102 0.041067 0.000000
0.432981 0.078110 0.000000
0.950208 0.054090 0.000000
0.610691 0.119794 0.000000
0.884148 0.095122 0.000000
0.728168 0.029482 0.000000
0.842857 0.062337 0.000000
0.826831 0.081195 0.000000
0.787531 0.019942 0.000000
0.628959 0.054908 0.000000
0.637462 0.021387 0.000000
0.672447 0.059862 0.000000
0.689038 0.077565 0.000000
0.271637 0.113331 0.000000
0.175000 -0.075000 0.000000
0.175000 -0.050000 0.000000
0.175000 -0.025000 0.000000
0.175000 0.000000 0.000000
0.059747 0.165276 0.000000
0.649797 0.103054 0.000000
0.902937 0.074284 0.000000
0.845255 0.084087 0.000000
0.983690 0.026316 0.000000
0.129214 0.266417 0.000000
0.853976 0.024719 0.000000
0.332190 0.054702 0.000000
0.372818 0.022947 0.000000
0.907414 0.026746 0.000000
0.564457 0.084656 0.000000
0.765026 0.082614 0.000000
0.432188 0.107327 0.000000
0.940544 0.022246 0.000000
0.987654 0.061228 0.000000
0.415381 0.042550 0.000000
1.001915 0.027766 0.000000
0.494135 0.121983 0.000000
0.188522 0.148553 0.000000
0.433307 0.132919 0.000000
0.200000 -0.075000 0.000000
0.200000 -0.050000 0.000000
0.200000 -0.025000 0.000000
0.200000 0.000000 0.000000
0.375759 0.087130 0.000000
0.095259 0.081436 0.000000
0.302803 0.087114 0.000000
0.805633 0.052596 0.000000
0.354334 0.048124 0.000000
0.308995 0.126788 0.000000
0.611308 0.047562 0.000000
0.951904 0.072499 0.000000
0.418055 0.127863 0.000000
0.024868 0.223585 0.000000
0.803761 0.079182 0.000000
0.711922 0.081092 0.000000
0.065830 0.018922 0.000000
0.461711 0.053845 0.000000
0.616244 0.084147 0.000000
0.066387 0.242488 0.000000
0.731000 0.062615 0.000000
0.381182 0.138402 0.000000
0.893147 0.064937 0.000000
0.725606 0.114218 0.000000
0.225000 -0.075000 0.000000
0.225000 -0.050000 0.000000
0.225000 -0.025000 0.000000
0.225000 0.000000 0.000000
0.286481 0.082298 0.000000
0.858171 0.051553 0.000000
0.588685 0.097901 0.000000
0.172644 0.148506 0.000000
0.046345 0.230591 0.000000
0.086079 0.266439 0.000000
0.453439 0.088902 0.000000
0.934626 0.062560 0.000000
0.635887 0.075095 0.000000
0.102233 0.183738 0.000000
0.690629 0.093992 0.000000
0.066348 0.394166 0.000000
0.345048 0.027465 0.000000
0.409379 0.073909 0.000000
0.062662 0.123513 0.000000
0.257828 0.184618 0.000000
0.521529 0.044928 0.000000
0.030752 0.099474 0.000000
0.257066 0.097121 0.000000
0.307857 0.054328 0.000000
0.250000 -0.075000 0.000000
0.250000 -0.050000 0.000000
0.250000 -0.025000 0.000000
0.250000 0.000000 0.000000
0.767713 0.034003 0.000000
0.371782 0.127442 0.000000
0.284164 0.133352 0.000000
0.326022 0.100334 0.000000
0.274171 0.032067 0.000000
0.397232 0.090823 0.000000
0.157708 0.140408 0.000000
0.267652 0.159784 0.000000
0.277235 0.147251 0.000000
0.522310 0.085282 0.000000
0.241005 0.157029 0.000000
0.037699 0.300151 0.000000
0.137138 0.131206 0.000000
0.567585 0.025048 0.000000
0.385260 0.060626 0.000000
0.326285 0.073957 0.000000
0.357489 0.098888 0.000000
0.784492 0.051607 0.000000
0.021683 0.118884 0.000000
0.546385 0.087746 0.000000
0.275000 -0.075000 0.000000
0.275000 -0.050000 0.000000
0.275000 -0.025000 0.000000
0.275000 0.000000 0.000000
0.300000 -0.075000 0.000000
0.300000 -0.050000 0.000000
0.300000 -0.025000 0.000000
0.300000 0.000000 0.000000
0.325000 -0.075000 0.000000
0.325000 -0.050000 0.000000
0.325000 -0.025000 0.000000
0.325000 0.000000 0.000000
0.350000 -0.075000 0.000000
0.350000 -0.050000 0.000000
0.350000 -0.025000 0.000000
0.350000 0.000000 0.000000
0.375000 -0.075000 0.000000
0.375000 -0.050000 0.000000
0.375000 -0.025000 0.000000
0.375000 0.000000 0.000000
0.400000 -0.075000 0.000000
0.400000 -0.050000 0.000000
0.400000 -0.025000 0.000000
0.400000 0.000000 0.000000
0.425000 -0.075000 0.000000
0.425000 -0.050000 0.000000
0.425000 -0.025000 0.000000
0.425000 0.000000 0.000000
0.450000 -0.075000 0.000000
0.450000 -0.050000 0.000000
0.450000 -0.025000 0.000000
0.450000 0.000000 0.000000
0.475000 -0.075000 0.000000
0.475000 -0.050000 0.000000
0.475000 -0.025000 0.000000
0.475000 0.000000 0.000000
0.500000 -0.075000 0.000000
0.500000 -0.050000 0.000000
0.500000 -0.025000 0.000000
0.500000 0.000000 0.000000
0.525000 -0.075000 0.000000
0.525000 -0.050000 0.000000
0.525000 -0.025000 0.000000
0.525000 0.000000 0.000000
0.550000 -0.075000 0.000000
0.550000 -0.050000 0.000000
0.550000 -0.025000 0.000000
0.550000 0.000000 0.000000
0.575000 -0.075000 0.000000
0.575000 -0.050000 0.000000
0.575000 -0.025000 0.000000
0.575000 0.000000 0.000000
0.600000 -0.075000 0.000000
0.600000 -0.050000 0.000000
0.600000 -0.025000 0.000000
0.600000 0.000000 0.000000
0.625000 -0.075000 0.000000
0.625000 -0.050000 0.000000
0.625000 -0.025000 0.000000
0.625000 0.000000 0.000000
0.650000 -0.075000 0.000000
0.650000 -0.050000 0.000000
0.650000 -0.025000 0.000000
0.650000 0.000000 0.000000
0.675000 -0.075000 0.000000
0.675000 -0.050000 0.000000
0.675000 -0.025000 0.000000
0.675000 0.000000 0.000000
0.700000 -0.075000 0.000000
0.700000 -0.050000 0.000000
0.700000 -0.025000 0.000000
0.700000 0.000000 0.000000
0.725000 -0.075000 0.000000
0.725000 -0.050000 0.000000
0.725000 -0.025000 0.000000
0.725000 0.000000 0.000000
0.750000 -0.075000 0.000000
0.750000 -0.050000 0.000000
0.750000 -0.025000 0.000000
0.750000 0.000000 0.000000
0.775000 -0.075000 0.000000
0.775000 -0.050000 0.000000
0.775000 -0.025000 0.000000
0.775000 0.000000 0.000000
0.800000 -0.075000 0.000000
0.800000 -0.050000 0.000000
0.800000 -0.025000 0.000000
0.800000 0.000000 0.000000
0.825000 -0.075000 0.000000
0.825000 -0.050000 0.000000
0.825000 -0.025000 0.000000
0.825000 0.000000 0.000000
0.850000 -0.075000 0.000000
0.850000 -0.050000 0.000000
0.850000 -0.025000 0.000000
0.850000 0.000000 0.000000
0.875000 -0.075000 0.000000
0.875000 -0.050000 0.000000
0.875000 -0.025000 0.000000
0.875000 0.000000 0.000000
0.900000 -0.075000 0.000000
0.900000 -0.050000 0.000000
0.900000 -0.025000 0.000000
0.900000 0.000000 0.000000
0.925000 -0.075000 0.000000
0.925000 -0.050000 0.000000
0.925000 -0.025000 0.000000
0.925000 0.000000 0.000000
0.950000 -0.075000 0.000000
0.950000 -0.050000 0.000000
0.950000 -0.025000 0.000000
0.950000 0.000000 0.000000
0.975000 -0.075000 0.000000
0.975000 -0.050000 0.000000
0.975000 -0.025000 0.000000
0.975000 0.000000 0.000000
1.000000 -0.075000 0.000000
1.000000 -0.050000 0.000000
1.000000 -0.025000 0.000000
1.000000 0.000000 0.000000
1.025000 -0.075000 0.000000
1.025000 -0.050000 0.000000
1.025000 -0.025000 0.000000
1.025000 0.000000 0.000000
1.025000 0.025000 0.000000
1.025000 0.050000 0.000000
1.025000 0.075000 0.000000
1.025000 0.100000 0.000000
1.025000 0.125000 0.000000
1.025000 0.150000 0.000000
1.025000 0.175000 0.000000
1.025000 0.200000 0.000000
1.025000 0.225000 0.000000
1.025000 0.250000 0.000000
1.025000 0.275000 0.000000
1.025000 0.300000 0.000000
1.025000 0.325000 0.000000
1.025000 0.350000 0.000000
1.025000 0.375000 0.000000
1.025000 0.400000 0.000000
1.025000 0.425000 0.000000
1.025000 0.450000 0.000000
1.025000 0.475000 0.000000
1.025000 0.500000 0.000000
1.025000 0.525000 0.000000
1.025000 0.550000 0.000000
1.025000 0.575000 0.000000
1.025000 0.600000 0.000000
1.050000 -0.075000 0.000000
1.050000 -0.050000 0.000000
1.050000 -0.025000 0.000000
1.050000 0.000000 0.000000
1.050000 0.025000 0.000000
1.050000 0.050000 0.000000
1.050000 0.075000 0.000000
1.050000 0.100000 0.000000
1.050000 0.125000 0.000000
1.050000 0.150000 0.000000
1.050000 0.175000 0.000000
1.050000 0.200000 0.000000
1.050000 0.225000 0.000000
1.050000 0.250000 0.000000
1.050000 0.275000 0.000000
1.050000 0.300000 0.000000
1.050000 0.325000 0.000000
1.050000 0.350000 0.000000
1.050000 0.375000 0.000000
1.050000 0.400000 0.000000
1.050000 0.425000 0.000000
1.050000 0.450000 0.000000
1.050000 0.475000 0.000000
1.050000 0.500000 0.000000
1.050000 0.525000 0.000000
1.050000 0.550000 0.000000
1.050000 0.575000 0.000000
1.050000 0.600000 0.000000
1.075000 -0.075000 0.000000
1.075000 -0.050000 0.000000
1.075000 -0.025000 0.000000
1.075000 0.000000 0.000000
1.075000 0.025000 0.000000
1.075000 0.050000 0.000000
1.075000 0.075000 0.000000
1.075000 0.100000 0.000000
1.075000 0.125000 0.000000
1.075000 0.150000 0.000000
1.075000 0.175000 0.000000
1.075000 0.200000 0.000000
1.075000 0.225000 0.000000
1.075000 0.250000 0.000000
1.075000 0.275000 0.000000
1.075000 0.300000 0.000000
1.075000 0.325000 0.000000
1.075000 0.350000 0.000000
1.075000 0.375000 0.000000
1.075000 0.400000 0.000000
1.075000 0.425000 0.000000
1.075000 0.450000 0.000000
1.075000 0.475000 0.000000
1.075000 0.500000 0.000000
1.075000 0.525000 0.000000
1.075000 0.550000 0.000000
1.075000 0.575000 0.000000
1.075000 0.600000 0.000000
1.100000 -0.075000 0.000000
1.100000 -0.050000 0.000000
1.100000 -0.025000 0.000000
1.100000 0.000000 0.000000
1.100000 0.025000 0.000000
1.100000 0.050000 0.000000
1.100000 0.075000 0.000000
1.100000 0.100000 0.000000
1.100000 0.125000 0.000000
1.100000 0.150000 0.000000
1.100000 0.175000 0.000000
1.100000 0.200000 0.000000
1.100000 0.225000 0.000000
1.100000 0.250000 0.000000
1.100000 0.275000 0.000000
1.100000 0.300000 0.000000
1.100000 0.325000 0.000000
1.100000 0.350000 0.000000
1.100000 0.375000 0.000000
1.100000 0.400000 0.000000
1.100000 0.425000 0.000000
1.100000 0.450000 0.000000
1.100000 0.475000 0.000000
1.100000 0.500000 0.000000
1.100000 0.525000 0.000000
1.100000 0.550000 0.000000
1.100000 0.575000 0.000000
1.100000 0.600000 0.000000
</DataArray>
</Points>
<PointData>
<DataArray NumberOfComponents='1' type='Int32' Name='ParticleType' format='ascii'>
3
3
3
3
3
3
3
3
3
3
3
3
3
3
3
3
3
3
3
3
3
3
3
3
3
3
2
2
3
3
3
3
3
3
3
3
3
3
3
3
3
3
3
3
3
3
3
3
3
3
3
3
3
3
2
2
3
3
2
2
2
2
2
2
2
2
2
2
2
2
2
2
2
2
2
2
2
2
2
2
2
2
2
2
3
3
2
2
2
2
2
2
2
2
2
2
2
2
2
2
2
2
2
2
2
2
2
2
2
2
2
2
3
3
2
2
0
0
0
0
0
0
0
0
0
0
0
0
0
0
0
0
0
0
0
0
3
3
2
2
0
0
0
0
0
0
0
0
0
0
0
0
0
0
0
0
0
0
0
0
3
3
2
2
0
0
0
0
0
0
0
0
0
0
0
0
0
0
0
0
0
0
0
0
3
3
2
2
0
0
0
0
0
0
0
0
0
0
0
0
0
0
0
0
0
0
0
0
3
3
2
2
0
0
0
0
0
0
0
0
0
0
0
0
0
0
0
0
0
0
0
0
3
3
2
2
0
0
0
0
0
0
0
0
0
0
0
0
0
0
0
0
0
0
0
0
3
3
2
2
0
0
0
0
0
0
0
0
0
0
0
0
0
0
0
0
0
0
0
0
3
3
2
2
0
0
0
0
0
0
0
0
0
0
0
0
0
0
0
0
0
0
0
0
3
3
2
2
0
0
0
0
0
0
0
0
0
0
0
0
0
0
0
0
0
0
0
0
3
3
2
2
0
0
0
0
0
0
0
0
0
0
0
0
0
0
0
0
0
0
0
0
3
3
2
2
3
3
2
2
3
3
2
2
3
3
2
2
3
3
2
2
3
3
2
2
3
3
2
2
3
3
2
2
3
3
2
2
3
3
2
2
3
3
2
2
3
3
2
2
3
3
2
2
3
3
2
2
3
3
2
2
3
3
2
2
3
3
2
2
3
3
2
2
3
3
2
2
3
3
2
2
3
3
2
2
3
3
2
2
3
3
2
2
3
3
2
2
3
3
2
2
3
3
2
2
3
3
2
2
3
3
2
2
3
3
2
2
3
3
2
2
3
3
2
2
2
2
2
2
2
2
2
2
2
2
2
2
2
2
2
2
2
2
2
2
2
2
2
2
3
3
2
2
2
2
2
2
2
2
2
2
2
2
2
2
2
2
2
2
2
2
2
2
2
2
2
2
3
3
3
3
3
3
3
3
3
3
3
3
3
3
3
3
3
3
3
3
3
3
3
3
3
3
2
2
3
3
3
3
3
3
3
3
3
3
3
3
3
3
3
3
3
3
3
3
3
3
3
3
3
3
2
2
</DataArray>
<DataArray NumberOfComponents='1' type='Float32' Name='Velocity' format='ascii'>
0.000000
0.000000
0.000000
0.000000
0.000000
0.000000
0.000000
0.000000
0.000000
0.000000
0.000000
0.000000
0.000000
0.000000
0.000000
0.000000
0.000000
0.000000
0.000000
0.000000
0.000000
0.000000
0.000000
0.000000
0.000000
0.000000
0.000000
0.000000
0.000000
0.000000
0.000000
0.000000
0.000000
0.000000
0.000000
0.000000
0.000000
0.000000
0.000000
0.000000
0.000000
0.000000
0.000000
0.000000
0.000000
0.000000
0.000000
0.000000
0.000000
0.000000
0.000000
0.000000
0.000000
0.000000
0.000000
0.000000
0.000000
0.000000
0.000000
0.000000
0.000000
0.000000
0.000000
0.000000
0.000000
0.000000
0.000000
0.000000
0.000000
0.000000
0.000000
0.000000
0.000000
0.000000
0.000000
0.000000
0.000000
0.000000
0.000000
0.000000
0.000000
0.000000
0.000000
0.000000
0.000000
0.000000
0.000000
0.000000
0.000000
0.000000
0.000000
0.000000
0.000000
0.000000
0.000000
0.000000
0.000000
0.000000
0.000000
0.000000
0.000000
0.000000
0.000000
0.000000
0.000000
0.000000
0.000000
0.000000
0.000000
0.000000
0.000000
0.000000
0.000000
0.000000
0.000000
0.000000
0.131829
0.825797
0.195264
0.052851
0.313408
0.322385
0.208383
0.246190
0.286655
0.455708
0.221579
0.265196
0.266731
0.117518
0.535866
0.841983
0.296627
0.114933
0.516465
0.494743
0.000000
0.000000
0.000000
0.000000
0.425971
0.184163
0.899853
0.081741
0.062574
0.561087
0.419684
0.442305
0.479031
0.799228
0.424656
0.619326
0.691046
0.134684
0.102013
0.191608
0.397564
0.388778
0.267529
0.177103
0.000000
0.000000
0.000000
0.000000
0.561606
0.124835
0.174602
0.297263
0.937495
0.395606
0.255749
0.223373
0.886655
0.271717
0.219561
0.556044
0.152989
0.271481
0.475751
0.538747
0.475501
0.458236
0.209408
0.090790
0.000000
0.000000
0.000000
0.000000
0.586807
0.978073
0.275827
0.227056
0.266908
0.374107
0.756364
0.369171
0.322565
0.565392
0.316235
0.551284
0.605529
0.267246
0.523763
0.464323
0.051572
0.321800
0.396441
0.933606
0.000000
0.000000
0.000000
0.000000
0.448741
0.901487
0.162236
0.244919
0.772909
0.262034
1.116897
0.703829
0.166574
0.188236
0.364384
0.677809
0.271040
0.791023
0.227970
0.800570
0.928574
0.036944
0.512991
0.172101
0.000000
0.000000
0.000000
0.000000
0.521649
0.168946
0.264347
0.422996
0.266680
0.198881
0.104768
0.569006
0.323797
1.656595
0.599154
0.408659
0.443836
0.582442
0.387413
0.317649
0.122326
0.376028
0.368474
0.777925
0.000000
0.000000
0.000000
0.000000
0.139262
0.661499
0.663255
0.605660
0.083930
0.430439
0.189499
0.322450
0.519406
0.127796
0.893002
0.095374
1.157573
0.203769
0.300315
0.539323
0.251958
0.491069
0.561125
0.644680
0.000000
0.000000
0.000000
0.000000
0.613600
0.281031
0.684375
0.310159
0.205115
0.878556
0.336707
0.185381
0.609538
0.495819
1.008556
0.315881
0.238052
0.291393
0.884362
0.664455
0.410275
0.786626
0.584824
0.333313
0.000000
0.000000
0.000000
0.000000
0.418647
0.507403
0.516527
0.684371
0.665815
0.605026
0.544521
0.045926
0.328038
0.324700
0.480474
0.763988
0.086308
0.582362
0.193114
0.741469
0.552179
0.330060
0.577444
0.540816
0.000000
0.000000
0.000000
0.000000
0.494980
0.948933
0.818541
0.710211
0.416449
0.548222
0.098410
0.388836
0.680610
0.588332
0.241871
0.053148
0.066626
0.365434
0.618898
0.403653
0.820590
0.288471
0.400997
0.986738
0.000000
0.000000
0.000000
0.000000
0.000000
0.000000
0.000000
0.000000
0.000000
0.000000
0.000000
0.000000
0.000000
0.000000
0.000000
0.000000
0.000000
0.000000
0.000000
0.000000
0.000000
0.000000
0.000000
0.000000
0.000000
0.000000
0.000000
0.000000
0.000000
0.000000
0.000000
0.000000
0.000000
0.000000
0.000000
0.000000
0.000000
0.000000
0.000000
0.000000
0.000000
0.000000
0.000000
0.000000
0.000000
0.000000
0.000000
0.000000
0.000000
0.000000
0.000000
0.000000
0.000000
0.000000
0.000000
0.000000
0.000000
0.000000
0.000000
0.000000
0.000000
0.000000
0.000000
0.000000
0.000000
0.000000
0.000000
0.000000
0.000000
0.000000
0.000000
0.000000
0.000000
0.000000
0.000000
0.000000
0.000000
0.000000
0.000000
0.000000
0.000000
0.000000
0.000000
0.000000
0.000000
0.000000
0.000000
0.000000
0.000000
0.000000
0.000000
0.000000
0.000000
0.000000
0.000000
0.000000
0.000000
0.000000
0.000000
0.000000
0.000000
0.000000
0.000000
0.000000
0.000000
0.000000
0.000000
0.000000
0.000000
0.000000
0.000000
0.000000
0.000000
0.000000
0.000000
0.000000
0.000000
0.000000
0.000000
0.000000
0.000000
0.000000
0.000000
0.000000
0.000000
0.000000
0.000000
0.000000
0.000000
0.000000
0.000000
0.000000
0.000000
0.000000
0.000000
0.000000
0.000000
0.000000
0.000000
0.000000
0.000000
0.000000
0.000000
0.000000
0.000000
0.000000
0.000000
0.000000
0.000000
0.000000
0.000000
0.000000
0.000000
0.000000
0.000000
0.000000
0.000000
0.000000
0.000000
0.000000
0.000000
0.000000
0.000000
0.000000
0.000000
0.000000
0.000000
0.000000
0.000000
0.000000
0.000000
0.000000
0.000000
0.000000
0.000000
0.000000
0.000000
0.000000
0.000000
0.000000
0.000000
0.000000
0.000000
0.000000
0.000000
0.000000
0.000000
0.000000
0.000000
0.000000
0.000000
0.000000
0.000000
0.000000
0.000000
0.000000
0.000000
0.000000
0.000000
0.000000
0.000000
0.000000
0.000000
0.000000
0.000000
0.000000
0.000000
0.000000
0.000000
0.000000
0.000000
0.000000
0.000000
0.000000
0.000000
0.000000
0.000000
0.000000
0.000000
0.000000
0.000000
0.000000
0.000000
0.000000
0.000000
0.000000
0.000000
0.000000
0.000000
0.000000
0.000000
0.000000
</DataArray>
<DataArray NumberOfComponents='1' type='Float32' Name='pressure' format='ascii'>
0.000000
0.000000
0.000000
0.000000
0.000000
0.000000
0.000000
0.000000
0.000000
0.000000
0.000000
0.000000
0.000000
0.000000
0.000000
0.000000
0.000000
0.000000
0.000000
0.000000
0.000000
0.000000
0.000000
0.000000
0.000000
0.000000
0.000000
0.000000
0.000000
0.000000
0.000000
0.000000
0.000000
0.000000
0.000000
0.000000
0.000000
0.000000
0.000000
0.000000
0.000000
0.000000
0.000000
0.000000
0.000000
0.000000
0.000000
0.000000
0.000000
0.000000
0.000000
0.000000
0.000000
0.000000
0.000000
0.000000
0.000000
0.000000
1533.193115
1196.325317
660.496826
200.237595
2016.421021
623.212280
1506.396362
0.000000
2730.153320
2793.751953
502.647980
0.000000
0.000000
0.000000
0.000000
0.000000
0.000000
0.000000
0.000000
0.000000
0.000000
0.000000
0.000000
0.000000
0.000000
0.000000
0.000000
0.000000
1831.982056
1787.891724
0.000000
0.000000
1902.740356
0.000000
145.574295
0.000000
0.000000
1578.385132
0.000000
0.000000
0.000000
0.000000
0.000000
0.000000
0.000000
0.000000
0.000000
0.000000
0.000000
0.000000
0.000000
0.000000
0.000000
0.000000
0.000000
0.000000
2788.380859
2309.332031
1078.344360
2285.443359
1163.179932
1781.368774
1731.525024
1154.525635
0.000000
188.759674
1995.952759
0.000000
1372.727539
0.000000
1044.938599
0.000000
0.000000
0.000000
0.000000
429.490753
0.000000
492.326141
0.000000
0.000000
3722.440918
1522.815308
0.000000
0.000000
0.000000
783.383240
431.752533
474.708588
1331.603271
0.000000
0.000000
0.000000
1115.172607
509.172394
0.000000
0.000000
1765.209106
52.404659
0.000000
398.299683
0.000000
698.841614
0.000000
0.000000
4304.332031
3140.143555
0.000000
283.952301
1280.216553
781.820129
0.000000
1091.771118
454.932770
992.154114
306.808014
0.000000
2270.110352
0.000000
945.514893
514.487549
736.861389
0.000000
786.357483
1324.594849
563.026245
771.518066
0.000000
0.000000
1251.269653
0.000000
1209.007202
0.000000
0.000000
0.000000
2098.354980
613.609924
35.047184
2153.801514
0.000000
455.853729
1322.483398
687.041565
1580.398071
664.665344
0.000000
556.084229
1419.481079
2237.107422
0.000000
1721.395264
0.000000
0.000000
2791.454590
1720.776733
0.000000
0.000000
0.000000
1700.904663
176.858017
557.189514
501.534546
1432.195312
0.000000
381.659760
0.000000
43.763283
675.965027
2178.488281
774.080627
620.317261
0.000000
916.123352
985.122864
0.000000
0.000000
0.000000
2210.033691
191.389603
1162.584961
0.000000
0.000000
179.879471
294.149139
844.531921
0.000000
991.405396
198.441162
0.000000
0.000000
596.438232
103.717216
0.000000
1497.381348
0.000000
0.000000
0.000000
0.000000
0.000000
0.000000
0.000000
2162.154785
1557.268433
0.000000
0.000000
0.000000
0.000000
0.000000
0.000000
97.019257
1455.527466
930.974915
560.003052
0.000000
0.000000
0.000000
0.000000
0.000000
779.658508
0.000000
0.000000
0.000000
0.000000
0.000000
0.000000
1842.887695
2398.300293
783.091064
0.000000
416.594940
0.000000
0.000000
0.000000
489.883881
0.000000
0.000000
0.000000
0.000000
315.190826
1296.109741
1111.387695
0.000000
0.000000
301.291199
0.000000
245.470337
0.000000
0.000000
0.000000
2504.168701
3324.814941
1660.268066
217.681396
0.000000
632.683105
2701.762695
0.000000
0.000000
0.000000
0.000000
0.000000
0.000000
0.000000
399.059174
943.327881
0.000000
0.000000
0.000000
406.082336
1286.706543
0.000000
0.000000
0.000000
1986.257568
652.703613
149.393250
506.875549
0.000000
0.000000
990.161438
582.948242
3016.062012
0.000000
0.000000
0.000000
0.000000
0.000000
96.785164
216.168610
0.000000
1671.956787
0.000000
1090.035156
0.000000
0.000000
0.000000
0.000000
722.629456
0.000000
0.000000
0.000000
2520.976074
2872.376221
0.000000
0.000000
1029.234985
1322.452271
0.000000
0.000000
157.603134
0.000000
0.000000
0.000000
1906.819214
1286.360596
0.000000
0.000000
2052.659180
1759.205322
0.000000
0.000000
2616.910156
2411.114990
0.000000
0.000000
2295.933350
375.361694
0.000000
0.000000
1759.849487
779.017090
0.000000
0.000000
1337.719971
1741.324097
0.000000
0.000000
2303.765869
2006.004028
0.000000
0.000000
1334.071045
442.912445
0.000000
0.000000
1005.408936
1754.898438
0.000000
0.000000
545.260315
1862.096191
0.000000
0.000000
1750.378174
1180.815308
0.000000
0.000000
1472.767090
1009.105408
0.000000
0.000000
0.000000
0.000000
0.000000
0.000000
1208.364258
980.307373
0.000000
0.000000
0.000000
0.000000
0.000000
0.000000
0.000000
0.000000
0.000000
0.000000
1715.657227
882.321228
0.000000
0.000000
2131.723389
1215.655762
0.000000
0.000000
425.170502
497.760742
0.000000
0.000000
670.267639
0.000000
0.000000
0.000000
1240.511475
596.548462
0.000000
0.000000
873.126587
726.260498
0.000000
0.000000
736.707397
323.818146
0.000000
0.000000
1042.631226
1026.547363
0.000000
0.000000
0.000000
1272.822144
0.000000
0.000000
0.000000
351.162811
0.000000
0.000000
0.000000
0.000000
0.000000
0.000000
0.000000
0.000000
0.000000
0.000000
0.000000
0.000000
0.000000
0.000000
0.000000
0.000000
0.000000
0.000000
0.000000
0.000000
0.000000
0.000000
0.000000
0.000000
0.000000
0.000000
0.000000
0.000000
0.000000
0.000000
0.000000
0.000000
0.000000
0.000000
0.000000
0.000000
0.000000
0.000000
0.000000
0.000000
0.000000
0.000000
0.000000
0.000000
0.000000
0.000000
0.000000
0.000000
0.000000
0.000000
0.000000
0.000000
0.000000
0.000000
0.000000
0.000000
0.000000
0.000000
0.000000
0.000000
0.000000
0.000000
0.000000
0.000000
0.000000
0.000000
0.000000
0.000000
0.000000
0.000000
0.000000
0.000000
0.000000
0.000000
0.000000
0.000000
0.000000
0.000000
0.000000
0.000000
0.000000
0.000000
0.000000
0.000000
0.000000
0.000000
0.000000
0.000000
0.000000
0.000000
0.000000
0.000000
0.000000
0.000000
0.000000
0.000000
0.000000
0.000000
0.000000
0.000000
0.000000
0.000000
0.000000
0.000000
0.000000
0.000000
0.000000
0.000000
0.000000
0.000000
0.000000
0.000000
</DataArray>
</PointData>
<Cells>
<DataArray type='Int32' Name='connectivity' format='ascii'>
0
1
2
3
4
5
6
7
8
9
10
11
12
13
14
15
16
17
18
19
20
21
22
23
24
25
26
27
28
29
30
31
32
33
34
35
36
37
38
39
40
41
42
43
44
45
46
47
48
49
50
51
52
53
54
55
56
57
58
59
60
61
62
63
64
65
66
67
68
69
70
71
72
73
74
75
76
77
78
79
80
81
82
83
84
85
86
87
88
89
90
91
92
93
94
95
96
97
98
99
100
101
102
103
104
105
106
107
108
109
110
111
112
113
114
115
116
117
118
119
120
121
122
123
124
125
126
127
128
129
130
131
132
133
134
135
136
137
138
139
140
141
142
143
144
145
146
147
148
149
150
151
152
153
154
155
156
157
158
159
160
161
162
163
164
165
166
167
168
169
170
171
172
173
174
175
176
177
178
179
180
181
182
183
184
185
186
187
188
189
190
191
192
193
194
195
196
197
198
199
200
201
202
203
204
205
206
207
208
209
210
211
212
213
214
215
216
217
218
219
220
221
222
223
224
225
226
227
228
229
230
231
232
233
234
235
236
237
238
239
240
241
242
243
244
245
246
247
248
249
250
251
252
253
254
255
256
257
258
259
260
261
262
263
264
265
266
267
268
269
270
271
272
273
274
275
276
277
278
279
280
281
282
283
284
285
286
287
288
289
290
291
292
293
294
295
296
297
298
299
300
301
302
303
304
305
306
307
308
309
310
311
312
313
314
315
316
317
318
319
320