<?xml version='1.0' encoding='UTF-8'?>
<VTKFile xmlns='VTK' byte_order='LittleEndian' version='0.1' type='UnstructuredGrid'>
<UnstructuredGrid>
<Piece NumberOfCells='584' NumberOfPoints='584'>
<Points>
<DataArray NumberOfComponents='3' type='Float32' Name='Position' format='ascii'>
-0.075000 -0.075000 0.000000
-0.075000 -0.050000 0.000000
-0.075000 -0.025000 0.000000
-0.075000 0.000000 0.000000
-0.075000 0.025000 0.000000
-0.075000 0.050000 0.000000
-0.075000 0.075000 0.000000
-0.075000 0.100000 0.000000
-0.075000 0.125000 0.000000
-0.075000 0.150000 0.000000
-0.075000 0.175000 0.000000
-0.075000 0.200000 0.000000
-0.075000 0.225000 0.000000
-0.075000 0.250000 0.000000
-0.075000 0.275000 0.000000
-0.075000 0.300000 0.000000
-0.075000 0.325000 0.000000
-0.075000 0.350000 0.000000
-0.075000 0.375000 0.000000
-0.075000 0.400000 0.000000
-0.075000 0.425000 0.000000
-0.075000 0.450000 0.000000
-0.075000 0.475000 0.000000
-0.075000 0.500000 0.000000
-0.075000 0.525000 0.000000
-0.075000 0.550000 0.000000
-0.075000 0.575000 0.000000
-0.075000 0.600000 0.000000
-0.050000 -0.075000 0.000000
-0.050000 -0.050000 0.000000
-0.050000 -0.025000 0.000000
-0.050000 0.000000 0.000000
-0.050000 0.025000 0.000000
-0.050000 0.050000 0.000000
-0.050000 0.075000 0.000000
-0.050000 0.100000 0.000000
-0.050000 0.125000 0.000000
-0.050000 0.150000 0.000000
-0.050000 0.175000 0.000000
-0.050000 0.200000 0.000000
-0.050000 0.225000 0.000000
-0.050000 0.250000 0.000000
-0.050000 0.275000 0.000000
-0.050000 0.300000 0.000000
-0.050000 0.325000 0.000000
-0.050000 0.350000 0.000000
-0.050000 0.375000 0.000000
-0.050000 0.400000 0.000000
-0.050000 0.425000 0.000000
-0.050000 0.450000 0.000000
-0.050000 0.475000 0.000000
-0.050000 0.500000 0.000000
-0.050000 0.525000 0.000000
-0.050000 0.550000 0.000000
-0.050000 0.575000 0.000000
-0.050000 0.600000 0.000000
-0.025000 -0.075000 0.000000
-0.025000 -0.050000 0.000000
-0.025000 -0.025000 0.000000
-0.025000 0.000000 0.000000
-0.025000 0.025000 0.000000
-0.025000 0.050000 0.000000
-0.025000 0.075000 0.000000
-0.025000 0.100000 0.000000
-0.025000 0.125000 0.000000
-0.025000 0.150000 0.000000
-0.025000 0.175000 0.000000
-0.025000 0.200000 0.000000
-0.025000 0.225000 0.000000
-0.025000 0.250000 0.000000
-0.025000 0.275000 0.000000
-0.025000 0.300000 0.000000
-0.025000 0.325000 0.000000
-0.025000 0.350000 0.000000
-0.025000 0.375000 0.000000
-0.025000 0.400000 0.000000
-0.025000 0.425000 0.000000
-0.025000 0.450000 0.000000
-0.025000 0.475000 0.000000
-0.025000 0.500000 0.000000
-0.025000 0.525000 0.000000
-0.025000 0.550000 0.000000
-0.025000 0.575000 0.000000
-0.025000 0.600000 0.000000
0.000000 -0.075000 0.000000
0.000000 -0.050000 0.000000
0.000000 -0.025000 0.000000
0.000000 0.000000 0.000000
0.000000 0.025000 0.000000
0.000000 0.050000 0.000000
0.000000 0.075000 0.000000
0.000000 0.100000 0.000000
0.000000 0.125000 0.000000
0.000000 0.150000 0.000000
0.000000 0.175000 0.000000
0.000000 0.200000 0.000000
0.000000 0.225000 0.000000
0.000000 0.250000 0.000000
0.000000 0.275000 0.000000
0.000000 0.300000 0.000000
0.000000 0.325000 0.000000
0.000000 0.350000 0.000000
0.000000 0.375000 0.000000
0.000000 0.400000 0.000000
0.000000 0.425000 0.000000
0.000000 0.450000 0.000000
0.000000 0.475000 0.000000
0.000000 0.500000 0.000000
0.000000 0.525000 0.000000
0.000000 0.550000 0.000000
0.000000 0.575000 0.000000
0.000000 0.600000 0.000000
0.025000 -0.075000 0.000000
0.025000 -0.050000 0.000000
0.025000 -0.025000 0.000000
0.025000 0.000000 0.000000
0.216340 0.062483 0.000000
0.139077 0.152132 0.000000
0.198696 0.041898 0.000000
0.207560 0.025100 0.000000
0.233562 0.047595 0.000000
0.133103 0.075369 0.000000
0.314670 0.021489 0.000000
0.227510 0.083730 0.000000
0.180430 0.114846 0.000000
0.164854 0.218247 0.000000
0.234352 0.022841 0.000000
0.110548 0.103248 0.000000
0.173142 0.021613 0.000000
0.134663 0.022772 0.000000
0.142384 0.122566 0.000000
0.074478 0.043770 0.000000
0.020899 0.149809 0.000000
0.091553 0.022573 0.000000
0.033355 0.110583 0.000000
0.184168 0.066284 0.000000
0.050000 -0.075000 0.000000
0.050000 -0.050000 0.000000
0.050000 -0.025000 0.000000
0.050000 0.000000 0.000000
0.098359 0.180637 0.000000
0.096016 0.121925 0.000000
0.079001 0.167648 0.000000
0.026185 0.023154 0.000000
0.021871 0.093316 0.000000
0.419313 0.065406 0.000000
0.207368 0.130245 0.000000
0.570226 0.028586 0.000000
0.096011 0.142569 0.000000
0.217029 0.233765 0.000000
0.120982 0.055764 0.000000
0.235646 0.136398 0.000000
0.021307 0.189664 0.000000
0.215123 0.256746 0.000000
0.143952 0.041857 0.000000
0.048588 0.045133 0.000000
0.205194 0.109334 0.000000
0.255419 0.094191 0.000000
0.102736 0.219023 0.000000
0.091318 0.057922 0.000000
0.075000 -0.075000 0.000000
0.075000 -0.050000 0.000000
0.075000 -0.025000 0.000000
0.075000 0.000000 0.000000
0.132789 0.096761 0.000000
0.168925 0.135902 0.000000
0.395999 0.075203 0.000000
0.343300 0.024088 0.000000
0.392323 0.106764 0.000000
0.591465 0.094969 0.000000
0.564836 0.099793 0.000000
0.055162 0.104637 0.000000
0.292940 0.113319 0.000000
0.555660 0.054515 0.000000
0.426216 0.023980 0.000000
0.087039 0.097820 0.000000
0.230882 0.105589 0.000000
0.237624 0.165312 0.000000
0.272646 0.083183 0.000000
0.069411 0.082242 0.000000
0.155425 0.107957 0.000000
0.057125 0.067112 0.000000
0.172042 0.085340 0.000000
0.169381 0.042159 0.000000
0.100000 -0.075000 0.000000
0.100000 -0.050000 0.000000
0.100000 -0.025000 0.000000
0.100000 0.000000 0.000000
0.469644 0.021124 0.000000
0.309354 0.201599 0.000000
0.475225 0.091663 0.000000
0.778288 0.023364 0.000000
0.245453 0.065984 0.000000
0.712928 0.020672 0.000000
0.535178 0.077232 0.000000
0.265625 0.051034 0.000000
0.651476 0.023808 0.000000
0.654952 0.048849 0.000000
0.449399 0.031055 0.000000
0.299653 0.134869 0.000000
0.488947 0.062190 0.000000
0.613150 0.044109 0.000000
0.068103 0.190155 0.000000
0.261957 0.025083 0.000000
0.507588 0.047065 0.000000
0.285452 0.061899 0.000000
0.313954 0.102240 0.000000
0.136156 0.213855 0.000000
0.125000 -0.075000 0.000000
0.125000 -0.050000 0.000000
0.125000 -0.025000 0.000000
0.125000 0.000000 0.000000
0.680282 0.044008 0.000000
0.609236 0.063627 0.000000
0.982052 0.067588 0.000000
0.834631 0.024629 0.000000
0.512635 0.077553 0.000000
0.599443 0.022011 0.000000
0.105672 0.206516 0.000000
0.433497 0.046974 0.000000
0.772066 0.079101 0.000000
0.729921 0.061669 0.000000
0.826829 0.066202 0.000000
0.473722 0.051896 0.000000
0.498288 0.025906 0.000000
0.344669 0.145065 0.000000
0.392201 0.022975 0.000000
0.369991 0.131655 0.000000
0.216366 0.178889 0.000000
0.157845 0.064948 0.000000
0.383278 0.126613 0.000000
0.066704 0.146931 0.000000
0.150000 -0.075000 0.000000
0.150000 -0.050000 0.000000
0.150000 -0.025000 0.000000
0.150000 0.000000 0.000000
0.172207 0.186763 0.000000
0.962977 0.024399 0.000000
0.648334 0.070999 0.000000
0.300112 0.043131 0.000000
0.885479 0.028308 0.000000
0.196059 0.086227 0.000000
0.897812 0.057133 0.000000
0.430992 0.128886 0.000000
0.948967 0.068617 0.000000
0.455572 0.119936 0.000000
0.924794 0.026493 0.000000
0.679112 0.026059 0.000000
0.847888 0.073184 0.000000
0.803406 0.089638 0.000000
0.757760 0.025187 0.000000
0.577172 0.067282 0.000000
0.630979 0.028033 0.000000
0.609909 0.090188 0.000000
0.624330 0.087211 0.000000
0.263712 0.161659 0.000000
0.175000 -0.075000 0.000000
0.175000 -0.050000 0.000000
0.175000 -0.025000 0.000000
0.175000 0.000000 0.000000
0.118164 0.137862 0.000000
0.521476 0.095599 0.000000
0.868122 0.055041 0.000000
0.776400 0.059717 0.000000
0.997485 0.023714 0.000000
0.158234 0.181323 0.000000
0.862371 0.022447 0.000000
0.354468 0.047215 0.000000
0.381271 0.055725 0.000000
0.905834 0.026954 0.000000
0.459455 0.068576 0.000000
0.741650 0.071939 0.000000
0.337339 0.097443 0.000000
0.944439 0.030026 0.000000
0.980766 0.037480 0.000000
0.404926 0.042269 0.000000
1.002200 0.050626 0.000000
0.443677 0.082044 0.000000
0.119114 0.164032 0.000000
0.353131 0.115766 0.000000
0.200000 -0.075000 0.000000
0.200000 -0.050000 0.000000
0.200000 -0.025000 0.000000
0.200000 0.000000 0.000000
0.326803 0.131526 0.000000
0.111700 0.032340 0.000000
0.270729 0.115558 0.000000
0.809856 0.025466 0.000000
0.364319 0.071998 0.000000
0.295831 0.184854 0.000000
0.587163 0.042873 0.000000
0.976175 0.078773 0.000000
0.332396 0.151000 0.000000
0.063519 0.120912 0.000000
0.788335 0.048134 0.000000
0.646542 0.085679 0.000000
0.061066 0.022501 0.000000
0.432897 0.149558 0.000000
0.521962 0.026000 0.000000
0.186551 0.210228 0.000000
0.697441 0.064862 0.000000
0.343598 0.188780 0.000000
0.843836 0.046810 0.000000
0.681742 0.067197 0.000000
0.225000 -0.075000 0.000000
0.225000 -0.050000 0.000000
0.225000 -0.025000 0.000000
0.225000 0.000000 0.000000
0.317437 0.065185 0.000000
0.813180 0.046290 0.000000
0.515111 0.113123 0.000000
0.238015 0.242400 0.000000
0.046783 0.183356 0.000000
0.083853 0.221925 0.000000
0.410913 0.122519 0.000000
0.878947 0.068074 0.000000
0.533736 0.049853 0.000000
0.037010 0.140876 0.000000
0.560570 0.081147 0.000000
0.193513 0.242845 0.000000
0.370597 0.029197 0.000000
0.414323 0.088556 0.000000
0.104370 0.075964 0.000000
0.195392 0.168417 0.000000
0.489137 0.106379 0.000000
0.025669 0.045500 0.000000
0.250005 0.126867 0.000000
0.330813 0.045121 0.000000
0.250000 -0.075000 0.000000
0.250000 -0.050000 0.000000
0.250000 -0.025000 0.000000
0.250000 0.000000 0.000000
0.726996 0.031364 0.000000
0.321639 0.194298 0.000000
0.213425 0.211142 0.000000
0.301258 0.083473 0.000000
0.283147 0.026558 0.000000
0.302103 0.166834 0.000000
0.136572 0.173071 0.000000
0.264229 0.178970 0.000000
0.253024 0.190282 0.000000
0.442329 0.101931 0.000000
0.203861 0.151148 0.000000
0.049606 0.159460 0.000000
0.173059 0.153384 0.000000
0.547802 0.022683 0.000000
0.373471 0.092572 0.000000
0.338102 0.078592 0.000000
0.281847 0.142608 0.000000
0.745176 0.046696 0.000000
0.027343 0.071301 0.000000
0.478390 0.118893 0.000000
0.275000 -0.075000 0.000000
0.275000 -0.050000 0.000000
0.275000 -0.025000 0.000000
0.275000 0.000000 0.000000
0.300000 -0.075000 0.000000
0.300000 -0.050000 0.000000
0.300000 -0.025000 0.000000
0.300000 0.000000 0.000000
0.325000 -0.075000 0.000000
0.325000 -0.050000 0.000000
0.325000 -0.025000 0.000000
0.325000 0.000000 0.000000
0.350000 -0.075000 0.000000
0.350000 -0.050000 0.000000
0.350000 -0.025000 0.000000
0.350000 0.000000 0.000000
0.375000 -0.075000 0.000000
0.375000 -0.050000 0.000000
0.375000 -0.025000 0.000000
0.375000 0.000000 0.000000
0.400000 -0.075000 0.000000
0.400000 -0.050000 0.000000
0.400000 -0.025000 0.000000
0.400000 0.000000 0.000000
0.425000 -0.075000 0.000000
0.425000 -0.050000 0.000000
0.425000 -0.025000 0.000000
0.425000 0.000000 0.000000
0.450000 -0.075000 0.000000
0.450000 -0.050000 0.000000
0.450000 -0.025000 0.000000
0.450000 0.000000 0.000000
0.475000 -0.075000 0.000000
0.475000 -0.050000 0.000000
0.475000 -0.025000 0.000000
0.475000 0.000000 0.000000
0.500000 -0.075000 0.000000
0.500000 -0.050000 0.000000
0.500000 -0.025000 0.000000
0.500000 0.000000 0.000000
0.525000 -0.075000 0.000000
0.525000 -0.050000 0.000000
0.525000 -0.025000 0.000000
0.525000 0.000000 0.000000
0.550000 -0.075000 0.000000
0.550000 -0.050000 0.000000
0.550000 -0.025000 0.000000
0.550000 0.000000 0.000000
0.575000 -0.075000 0.000000
0.575000 -0.050000 0.000000
0.575000 -0.025000 0.000000
0.575000 0.000000 0.000000
0.600000 -0.075000 0.000000
0.600000 -0.050000 0.000000
0.600000 -0.025000 0.000000
0.600000 0.000000 0.000000
0.625000 -0.075000 0.000000
0.625000 -0.050000 0.000000
0.625000 -0.025000 0.000000
0.625000 0.000000 0.000000
0.650000 -0.075000 0.000000
0.650000 -0.050000 0.000000
0.650000 -0.025000 0.000000
0.650000 0.000000 0.000000
0.675000 -0.075000 0.000000
0.675000 -0.050000 0.000000
0.675000 -0.025000 0.000000
0.675000 0.000000 0.000000
0.700000 -0.075000 0.000000
0.700000 -0.050000 0.000000
0.700000 -0.025000 0.000000
0.700000 0.000000 0.000000
0.725000 -0.075000 0.000000
0.725000 -0.050000 0.000000
0.725000 -0.025000 0.000000
0.725000 0.000000 0.000000
0.750000 -0.075000 0.000000
0.750000 -0.050000 0.000000
0.750000 -0.025000 0.000000
0.750000 0.000000 0.000000
0.775000 -0.075000 0.000000
0.775000 -0.050000 0.000000
0.775000 -0.025000 0.000000
0.775000 0.000000 0.000000
0.800000 -0.075000 0.000000
0.800000 -0.050000 0.000000
0.800000 -0.025000 0.000000
0.800000 0.000000 0.000000
0.825000 -0.075000 0.000000
0.825000 -0.050000 0.000000
0.825000 -0.025000 0.000000
0.825000 0.000000 0.000000
0.850000 -0.075000 0.000000
0.850000 -0.050000 0.000000
0.850000 -0.025000 0.000000
0.850000 0.000000 0.000000
0.875000 -0.075000 0.000000
0.875000 -0.050000 0.000000
0.875000 -0.025000 0.000000
0.875000 0.000000 0.000000
0.900000 -0.075000 0.000000
0.900000 -0.050000 0.000000
0.900000 -0.025000 0.000000
0.900000 0.000000 0.000000
0.925000 -0.075000 0.000000
0.925000 -0.050000 0.000000
0.925000 -0.025000 0.000000
0.925000 0.000000 0.000000
0.950000 -0.075000 0.000000
0.950000 -0.050000 0.000000
0.950000 -0.025000 0.000000
0.950000 0.000000 0.000000
0.975000 -0.075000 0.000000
0.975000 -0.050000 0.000000
0.975000 -0.025000 0.000000
0.975000 0.000000 0.000000
1.000000 -0.075000 0.000000
1.000000 -0.050000 0.000000
1.000000 -0.025000 0.000000
1.000000 0.000000 0.000000
1.025000 -0.075000 0.000000
1.025000 -0.050000 0.000000
1.025000 -0.025000 0.000000
1.025000 0.000000 0.000000
1.025000 0.025000 0.000000
1.025000 0.050000 0.000000
1.025000 0.075000 0.000000
1.025000 0.100000 0.000000
1.025000 0.125000 0.000000
1.025000 0.150000 0.000000
1.025000 0.175000 0.000000
1.025000 0.200000 0.000000
1.025000 0.225000 0.000000
1.025000 0.250000 0.000000
1.025000 0.275000 0.000000
1.025000 0.300000 0.000000
1.025000 0.325000 0.000000
1.025000 0.350000 0.000000
1.025000 0.375000 0.000000
1.025000 0.400000 0.000000
1.025000 0.425000 0.000000
1.025000 0.450000 0.000000
1.025000 0.475000 0.000000
1.025000 0.500000 0.000000
1.025000 0.525000 0.000000
1.025000 0.550000 0.000000
1.025000 0.575000 0.000000
1.025000 0.600000 0.000000
1.050000 -0.075000 0.000000
1.050000 -0.050000 0.000000
1.050000 -0.025000 0.000000
1.050000 0.000000 0.000000
1.050000 0.025000 0.000000
1.050000 0.050000 0.000000
1.050000 0.075000 0.000000
1.050000 0.100000 0.000000
1.050000 0.125000 0.000000
1.050000 0.150000 0.000000
1.050000 0.175000 0.000000
1.050000 0.200000 0.000000
1.050000 0.225000 0.000000
1.050000 0.250000 0.000000
1.050000 0.275000 0.000000
1.050000 0.300000 0.000000
1.050000 0.325000 0.000000
1.050000 0.350000 0.000000
1.050000 0.375000 0.000000
1.050000 0.400000 0.000000
1.050000 0.425000 0.000000
1.050000 0.450000 0.000000
1.050000 0.475000 0.000000
1.050000 0.500000 0.000000
1.050000 0.525000 0.000000
1.050000 0.550000 0.000000
1.050000 0.575000 0.000000
1.050000 0.600000 0.000000
1.075000 -0.075000 0.000000
1.075000 -0.050000 0.000000
1.075000 -0.025000 0.000000
1.075000 0.000000 0.000000
1.075000 0.025000 0.000000
1.075000 0.050000 0.000000
1.075000 0.075000 0.000000
1.075000 0.100000 0.000000
1.075000 0.125000 0.000000
1.075000 0.150000 0.000000
1.075000 0.175000 0.000000
1.075000 0.200000 0.000000
1.075000 0.225000 0.000000
1.075000 0.250000 0.000000
1.075000 0.275000 0.000000
1.075000 0.300000 0.000000
1.075000 0.325000 0.000000
1.075000 0.350000 0.000000
1.075000 0.375000 0.000000
1.075000 0.400000 0.000000
1.075000 0.425000 0.000000
1.075000 0.450000 0.000000
1.075000 0.475000 0.000000
1.075000 0.500000 0.000000
1.075000 0.525000 0.000000
1.075000 0.550000 0.000000
1.075000 0.575000 0.000000
1.075000 0.600000 0.000000
1.100000 -0.075000 0.000000
1.100000 -0.050000 0.000000
1.100000 -0.025000 0.000000
1.100000 0.000000 0.000000
1.100000 0.025000 0.000000
1.100000 0.050000 0.000000
1.100000 0.075000 0.000000
1.100000 0.100000 0.000000
1.100000 0.125000 0.000000
1.100000 0.150000 0.000000
1.100000 0.175000 0.000000
1.100000 0.200000 0.000000
1.100000 0.225000 0.000000
1.100000 0.250000 0.000000
1.100000 0.275000 0.000000
1.100000 0.300000 0.000000
1.100000 0.325000 0.000000
1.100000 0.350000 0.000000
1.100000 0.375000 0.000000
1.100000 0.400000 0.000000
1.100000 0.425000 0.000000
1.100000 0.450000 0.000000
1.100000 0.475000 0.000000
1.100000 0.500000 0.000000
1.100000 0.525000 0.000000
1.100000 0.550000 0.000000
1.100000 0.575000 0.000000
1.100000 0.600000 0.000000
</DataArray>
</Points>
<PointData>
<DataArray NumberOfComponents='1' type='Int32' Name='ParticleType' format='ascii'>
3
3
3
3
3
3
3
3
3
3
3
3
3
3
3
3
3
3
3
3
3
3
3
3
3
3
2
2
3
3
3
3
3
3
3
3
3
3
3
3
3
3
3
3
3
3
3
3
3
3
3
3
3
3
2
2
3
3
2
2
2
2
2
2
2
2
2
2
2
2
2
2
2
2
2
2
2
2
2
2
2
2
2
2
3
3
2
2
2
2
2
2
2
2
2
2
2
2
2
2
2
2
2
2
2
2
2
2
2
2
2
2
3
3
2
2
0
0
0
0
0
0
0
0
0
0
0
0
0
0
0
0
0
0
0
0
3
3
2
2
0
0
0
0
0
0
0
0
0
0
0
0
0
0
0
0
0
0
0
0
3
3
2
2
0
0
0
0
0
0
0
0
0
0
0
0
0
0
0
0
0
0
0
0
3
3
2
2
0
0
0
0
0
0
0
0
0
0
0
0
0
0
0
0
0
0
0
0
3
3
2
2
0
0
0
0
0
0
0
0
0
0
0
0
0
0
0
0
0
0
0
0
3
3
2
2
0
0
0
0
0
0
0
0
0
0
0
0
0
0
0
0
0
0
0
0
3
3
2
2
0
0
0
0
0
0
0
0
0
0
0
0
0
0
0
0
0
0
0
0
3
3
2
2
0
0
0
0
0
0
0
0
0
0
0
0
0
0
0
0
0
0
0
0
3
3
2
2
0
0
0
0
0
0
0
0
0
0
0
0
0
0
0
0
0
0
0
0
3
3
2
2
0
0
0
0
0
0
0
0
0
0
0
0
0
0
0
0
0
0
0
0
3
3
2
2
3
3
2
2
3
3
2
2
3
3
2
2
3
3
2
2
3
3
2
2
3
3
2
2
3
3
2
2
3
3
2
2
3
3
2
2
3
3
2
2
3
3
2
2
3
3
2
2
3
3
2
2
3
3
2
2
3
3
2
2
3
3
2
2
3
3
2
2
3
3
2
2
3
3
2
2
3
3
2
2
3
3
2
2
3
3
2
2
3
3
2
2
3
3
2
2
3
3
2
2
3
3
2
2
3
3
2
2
3
3
2
2
3
3
2
2
3
3
2
2
2
2
2
2
2
2
2
2
2
2
2
2
2
2
2
2
2
2
2
2
2
2
2
2
3
3
2
2
2
2
2
2
2
2
2
2
2
2
2
2
2
2
2
2
2
2
2
2
2
2
2
2
3
3
3
3
3
3
3
3
3
3
3
3
3
3
3
3
3
3
3
3
3
3
3
3
3
3
2
2
3
3
3
3
3
3
3
3
3
3
3
3
3
3
3
3
3
3
3
3
3
3
3
3
3
3
2
2
</DataArray>
<DataArray NumberOfComponents='1' type='Float32' Name='Velocity' format='ascii'>
0.000000
0.000000
0.000000
0.000000
0.000000
0.000000
0.000000
0.000000
0.000000
0.000000
0.000000
0.000000
0.000000
0.000000
0.000000
0.000000
0.000000
0.000000
0.000000
0.000000
0.000000
0.000000
0.000000
0.000000
0.000000
0.000000
0.000000
0.000000
0.000000
0.000000
0.000000
0.000000
0.000000
0.000000
0.000000
0.000000
0.000000
0.000000
0.000000
0.000000
0.000000
0.000000
0.000000
0.000000
0.000000
0.000000
0.000000
0.000000
0.000000
0.000000
0.000000
0.000000
0.000000
0.000000
0.000000
0.000000
0.000000
0.000000
0.000000
0.000000
0.000000
0.000000
0.000000
0.000000
0.000000
0.000000
0.000000
0.000000
0.000000
0.000000
0.000000
0.000000
0.000000
0.000000
0.000000
0.000000
0.000000
0.000000
0.000000
0.000000
0.000000
0.000000
0.000000
0.000000
0.000000
0.000000
0.000000
0.000000
0.000000
0.000000
0.000000
0.000000
0.000000
0.000000
0.000000
0.000000
0.000000
0.000000
0.000000
0.000000
0.000000
0.000000
0.000000
0.000000
0.000000
0.000000
0.000000
0.000000
0.000000
0.000000
0.000000
0.000000
0.000000
0.000000
0.000000
0.000000
0.392637
0.238875
0.405425
0.259643
0.437192
0.334303
0.259529
0.618370
0.328759
0.776653
0.319244
0.668916
0.340174
0.534278
0.237858
0.257885
0.290552
0.232448
0.119369
0.499008
0.000000
0.000000
0.000000
0.000000
0.354609
0.661390
0.305741
0.235541
0.348089
0.191850
0.196126
0.282694
0.359241
0.421590
0.664603
0.417750
0.819597
0.745422
0.582718
0.105298
0.205229
0.345980
0.360040
0.113245
0.000000
0.000000
0.000000
0.000000
0.750055
0.379506
0.579436
0.316737
0.316494
0.748013
0.573285
0.245695
0.213451
0.255591
0.200122
0.296803
0.490335
0.249069
0.398249
0.540908
0.202173
0.096855
0.572817
0.736681
0.000000
0.000000
0.000000
0.000000
0.249765
0.548575
0.660031
0.087923
0.109698
0.134693
0.245815
0.679703
0.079553
0.330404
0.106616
0.382640
0.158092
0.294324
0.531236
0.342555
0.473216
0.296676
0.275851
0.100056
0.000000
0.000000
0.000000
0.000000
0.068621
0.365060
0.063692
0.360874
0.167322
0.157559
0.465398
0.358291
0.258807
0.080316
0.237903
0.191352
0.348492
0.064813
0.361436
0.346486
0.216857
0.427863
0.180192
0.339846
0.000000
0.000000
0.000000
0.000000
0.254107
0.102271
0.295988
0.689469
0.176856
0.127567
0.041663
0.566401
0.074968
0.264344
0.158793
0.084438
0.291594
0.015267
0.178504
0.366353
0.210903
0.432976
0.440924
0.419059
0.000000
0.000000
0.000000
0.000000
0.218144
0.191473
0.142013
0.136722
0.256831
0.372923
0.171487
0.370990
0.435174
0.263875
0.146733
0.270075
0.286495
0.071408
0.109503
0.255936
0.233635
0.380374
0.425365
0.314941
0.000000
0.000000
0.000000
0.000000
0.103566
0.328192
0.276645
0.299248
0.339934
0.747089
0.125420
0.108882
0.274143
0.718706
0.111557
0.358101
0.188634
0.567810
0.324715
0.497289
0.027131
0.644784
0.018596
0.349268
0.000000
0.000000
0.000000
0.000000
0.364996
0.270549
0.208765
0.786343
0.370095
0.143181
0.640731
0.174635
0.430168
0.584959
0.270918
1.877876
0.477783
0.352870
0.533123
0.316465
0.035283
0.403679
0.250633
0.395745
0.000000
0.000000
0.000000
0.000000
0.098403
0.417356
0.265929
0.382623
0.310180
0.441930
0.300149
0.340401
0.491553
0.216130
0.567086
0.650347
0.313042
0.286793
0.531376
0.663033
0.435818
0.120558
0.080199
0.288471
0.000000
0.000000
0.000000
0.000000
0.000000
0.000000
0.000000
0.000000
0.000000
0.000000
0.000000
0.000000
0.000000
0.000000
0.000000
0.000000
0.000000
0.000000
0.000000
0.000000
0.000000
0.000000
0.000000
0.000000
0.000000
0.000000
0.000000
0.000000
0.000000
0.000000
0.000000
0.000000
0.000000
0.000000
0.000000
0.000000
0.000000
0.000000
0.000000
0.000000
0.000000
0.000000
0.000000
0.000000
0.000000
0.000000
0.000000
0.000000
0.000000
0.000000
0.000000
0.000000
0.000000
0.000000
0.000000
0.000000
0.000000
0.000000
0.000000
0.000000
0.000000
0.000000
0.000000
0.000000
0.000000
0.000000
0.000000
0.000000
0.000000
0.000000
0.000000
0.000000
0.000000
0.000000
0.000000
0.000000
0.000000
0.000000
0.000000
0.000000
0.000000
0.000000
0.000000
0.000000
0.000000
0.000000
0.000000
0.000000
0.000000
0.000000
0.000000
0.000000
0.000000
0.000000
0.000000
0.000000
0.000000
0.000000
0.000000
0.000000
0.000000
0.000000
0.000000
0.000000
0.000000
0.000000
0.000000
0.000000
0.000000
0.000000
0.000000
0.000000
0.000000
0.000000
0.000000
0.000000
0.000000
0.000000
0.000000
0.000000
0.000000
0.000000
0.000000
0.000000
0.000000
0.000000
0.000000
0.000000
0.000000
0.000000
0.000000
0.000000
0.000000
0.000000
0.000000
0.000000
0.000000
0.000000
0.000000
0.000000
0.000000
0.000000
0.000000
0.000000
0.000000
0.000000
0.000000
0.000000
0.000000
0.000000
0.000000
0.000000
0.000000
0.000000
0.000000
0.000000
0.000000
0.000000
0.000000
0.000000
0.000000
0.000000
0.000000
0.000000
0.000000
0.000000
0.000000
0.000000
0.000000
0.000000
0.000000
0.000000
0.000000
0.000000
0.000000
0.000000
0.000000
0.000000
0.000000
0.000000
0.000000
0.000000
0.000000
0.000000
0.000000
0.000000
0.000000
0.000000
0.000000
0.000000
0.000000
0.000000
0.000000
0.000000
0.000000
0.000000
0.000000
0.000000
0.000000
0.000000
0.000000
0.000000
0.000000
0.000000
0.000000
0.000000
0.000000
0.000000
0.000000
0.000000
0.000000
0.000000
0.000000
0.000000
0.000000
0.000000
0.000000
0.000000
0.000000
0.000000
0.000000
0.000000
0.000000
0.000000
0.000000
0.000000
0.000000
0.000000
0.000000
0.000000
0.000000
0.000000
</DataArray>
<DataArray NumberOfComponents='1' type='Float32' Name='pressure' format='ascii'>
0.000000
0.000000
0.000000
0.000000
0.000000
0.000000
0.000000
0.000000
0.000000
0.000000
0.000000
0.000000
0.000000
0.000000
0.000000
0.000000
0.000000
0.000000
0.000000
0.000000
0.000000
0.000000
0.000000
0.000000
0.000000
0.000000
0.000000
0.000000
0.000000
0.000000
0.000000
0.000000
0.000000
0.000000
0.000000
0.000000
0.000000
0.000000
0.000000
0.000000
0.000000
0.000000
0.000000
0.000000
0.000000
0.000000
0.000000
0.000000
0.000000
0.000000
0.000000
0.000000
0.000000
0.000000
0.000000
0.000000
0.000000
0.000000
1250.199585
1004.817383
339.155853
315.349152
585.140259
1545.091187
23.988497
2102.890137
1147.361084
1107.551514
0.000000
0.000000
0.000000
0.000000
0.000000
0.000000
0.000000
0.000000
0.000000
0.000000
0.000000
0.000000
0.000000
0.000000
0.000000
0.000000
0.000000
0.000000
1442.253662
1425.380615
428.125549
303.697510
1065.302246
543.183044
0.000000
271.472534
0.000000
0.000000
0.000000
0.000000
0.000000
0.000000
0.000000
0.000000
0.000000
0.000000
0.000000
0.000000
0.000000
0.000000
0.000000
0.000000
0.000000
0.000000
0.000000
0.000000
2273.043213
1870.905273
914.437805
1330.446899
1240.087524
2246.589600
1064.272339
1261.175049
1429.141968
949.152344
0.000000
0.000000
1494.803345
1627.467163
1272.184204
2211.742432
0.000000
1610.356689
0.000000
1864.576782
0.000000
2152.850098
0.000000
0.000000
2315.561035
396.042572
0.000000
734.109985
0.000000
464.324036
361.979431
1529.467773
751.190308
1080.634155
0.000000
0.000000
1570.213013
0.000000
0.000000
0.000000
1053.996338
1289.225708
1073.367310
750.207275
0.000000
870.076782
0.000000
0.000000
3019.940674
2072.968018
1183.780151
651.501526
738.100952
1273.495483
1320.462769
0.000000
0.000000
255.636337
1092.776611
515.325989
904.464783
0.000000
545.091553
0.000000
237.464600
769.851929
1061.888062
0.000000
1016.063354
2138.279541
0.000000
0.000000
2842.799561
2609.770264
904.389465
0.000000
594.348022
394.955627
2621.537109
380.098541
780.216675
976.589417
829.729553
0.000000
1526.391113
0.000000
381.352997
0.000000
0.000000
2008.776855
1087.947754
2256.217285
0.000000
0.000000
0.000000
0.000000
2473.738525
1241.126465
535.059448
0.000000
0.000000
658.300293
25.229349
416.754913
0.000000
1286.050781
0.000000
0.000000
0.000000
966.873108
721.255737
0.000000
1504.839111
0.000000
0.000000
1073.651611
0.000000
214.517487
0.000000
0.000000
2015.392090
249.459854
0.000000
522.567139
0.000000
1811.654297
456.173584
973.987305
0.000000
0.000000
0.000000
0.000000
0.000000
0.000000
0.000000
0.000000
0.000000
1375.512939
0.000000
0.000000
0.000000
95.716141
0.000000
0.000000
3172.124268
2254.448730
0.000000
0.000000
615.898926
0.000000
328.609283
1542.510864
0.000000
1680.242065
1209.750732
592.285645
0.000000
0.000000
773.571594
0.000000
0.000000
482.803528
0.000000
1028.507080
0.000000
466.833893
0.000000
0.000000
1925.580566
1268.269775
1146.801270
1117.769409
395.783844
377.873810
255.691330
0.000000
1701.944946
0.000000
325.595703
0.000000
0.000000
0.000000
1257.092163
0.000000
1460.272217
0.000000
0.000000
0.000000
183.358154
0.000000
0.000000
0.000000
2579.300049
2523.037109
1069.115356
0.000000
0.000000
0.000000
0.000000
0.000000
0.000000
0.000000
1498.975098
581.480347
274.151093
0.000000
2126.247070
0.000000
695.312744
0.000000
402.589203
1670.792847
488.033264
878.465210
0.000000
0.000000
2307.065674
2094.344238
0.000000
0.000000
0.000000
773.288696
1696.158447
0.000000
0.000000
0.000000
0.000000
634.740601
7.079172
835.145996
560.962402
676.338501
1146.129272
1792.490723
0.000000
444.663635
0.000000
0.000000
0.000000
0.000000
1666.081543
1763.010864
0.000000
0.000000
2611.443848
1981.970459
0.000000
0.000000
2975.966797
2861.500488
0.000000
0.000000
1887.266357
1465.621582
0.000000
0.000000
1090.774170
0.000000
0.000000
0.000000
1939.544312
1563.266113
0.000000
0.000000
2096.908936
1475.793457
0.000000
0.000000
2043.787476
1792.349854
0.000000
0.000000
3314.028320
3041.323486
0.000000
0.000000
1529.836182
1241.003052
0.000000
0.000000
1203.036377
1565.903442
0.000000
0.000000
2076.024658
1885.439819
0.000000
0.000000
338.438995
447.196533
0.000000
0.000000
1704.257812
1823.165405
0.000000
0.000000
0.000000
0.000000
0.000000
0.000000
337.872467
446.813934
0.000000
0.000000
0.000000
0.000000
0.000000
0.000000
1205.921875
0.000000
0.000000
0.000000
1640.196777
983.941956
0.000000
0.000000
535.541077
637.821472
0.000000
0.000000
1085.983276
1421.713745
0.000000
0.000000
0.000000
0.000000
0.000000
0.000000
378.888885
253.628738
0.000000
0.000000
1387.897217
1890.665771
0.000000
0.000000
1331.253662
1423.610229
0.000000
0.000000
263.264832
1781.252441
0.000000
0.000000
306.203583
2510.809082
0.000000
0.000000
143.709717
881.431763
0.000000
0.000000
0.000000
480.075378
0.000000
0.000000
173.081512
62.797131
0.000000
0.000000
0.000000
0.000000
0.000000
0.000000
0.000000
0.000000
0.000000
0.000000
0.000000
0.000000
0.000000
0.000000
0.000000
0.000000
0.000000
0.000000
0.000000
0.000000
0.000000
0.000000
0.000000
0.000000
0.000000
0.000000
0.000000
0.000000
0.000000
0.000000
0.000000
0.000000
0.000000
0.000000
0.000000
0.000000
0.000000
0.000000
0.000000
0.000000
0.000000
0.000000
0.000000
0.000000
0.000000
0.000000
0.000000
0.000000
0.000000
0.000000
0.000000
0.000000
0.000000
0.000000
0.000000
0.000000
0.000000
0.000000
0.000000
0.000000
0.000000
0.000000
0.000000
0.000000
0.000000
0.000000
0.000000
0.000000
0.000000
0.000000
0.000000
0.000000
0.000000
0.000000
0.000000
0.000000
0.000000
0.000000
0.000000
0.000000
0.000000
0.000000
0.000000
0.000000
0.000000
0.000000
0.000000
0.000000
0.000000
0.000000
0.000000
0.000000
0.000000
0.000000
0.000000
0.000000
0.000000
0.000000
0.000000
0.000000
0.000000
0.000000
0.000000
0.000000
0.000000
0.000000
0.000000
0.000000
0.000000
0.000000
0.000000
0.000000
</DataArray>
</PointData>
<Cells>
<DataArray type='Int32' Name='connectivity' format='ascii'>
0
1
2
3
4
5
6
7
8
9
10
11
12
13
14
15
16
17
18
19
20
21
22
23
24
25
26
27
28
29
30
31
32
33
34
35
36
37
38
39
40
41
42
43
44
45
46
47
48
49
50
51
52
53
54
55
56
57
58
59
60
61
62
63
64
65
66
67
68
69
70
71
72
73
74
75
76
77
78
79
80
81
82
83
84
85
86
87
88
89
90
91
92
93
94
95
96
97
98
99
100
101
102
103
104
105
106
107
108
109
110
111
112
113
114
115
116
117
118
119
120
121
122
123
124
125
126
127
128
129
130
131
132
133
134
135
136
137
138
139
140
141
142
143
144
145
146
147
148
149
150
151
152
153
154
155
156
157
158
159
160
161
162
163
164
165
166
167
168
169
170
171
172
173
174
175
176
177
178
179
180
181
182
183
184
185
186
187
188
189
190
191
192
193
194
195
196
197
198
199
200
201
202
203
204
205
206
207
208
209
210
211
212
213
214
215
216
217
218
219
220
221
222
223
224
225
226
227
228
229
230
231
232
233
234
235
236
237
238
239
240
241
242
243
244
245
246
247
248
249
250
251
252
253
254
255
256
257
258
259
260
261
262
263
264
265
266
267
268
269
270
271
272
273
274
275
276
277
278
279
280
281
282
283
284
285
286
287
288
289
290
291
292
293
294
295
296
297
298
299
300
301
302
303
304
305
306
307
308
309
310