<?xml version='1.0' encoding='UTF-8'?>
<VTKFile xmlns='VTK' byte_order='LittleEndian' version='0.1' type='UnstructuredGrid'>
<UnstructuredGrid>
<Piece NumberOfCells='584' NumberOfPoints='584'>
<Points>
<DataArray NumberOfComponents='3' type='Float32' Name='Position' format='ascii'>
-0.075000 -0.075000 0.000000
-0.075000 -0.050000 0.000000
-0.075000 -0.025000 0.000000
-0.075000 0.000000 0.000000
-0.075000 0.025000 0.000000
-0.075000 0.050000 0.000000
-0.075000 0.075000 0.000000
-0.075000 0.100000 0.000000
-0.075000 0.125000 0.000000
-0.075000 0.150000 0.000000
-0.075000 0.175000 0.000000
-0.075000 0.200000 0.000000
-0.075000 0.225000 0.000000
-0.075000 0.250000 0.000000
-0.075000 0.275000 0.000000
-0.075000 0.300000 0.000000
-0.075000 0.325000 0.000000
-0.075000 0.350000 0.000000
-0.075000 0.375000 0.000000
-0.075000 0.400000 0.000000
-0.075000 0.425000 0.000000
-0.075000 0.450000 0.000000
-0.075000 0.475000 0.000000
-0.075000 0.500000 0.000000
-0.075000 0.525000 0.000000
-0.075000 0.550000 0.000000
-0.075000 0.575000 0.000000
-0.075000 0.600000 0.000000
-0.050000 -0.075000 0.000000
-0.050000 -0.050000 0.000000
-0.050000 -0.025000 0.000000
-0.050000 0.000000 0.000000
-0.050000 0.025000 0.000000
-0.050000 0.050000 0.000000
-0.050000 0.075000 0.000000
-0.050000 0.100000 0.000000
-0.050000 0.125000 0.000000
-0.050000 0.150000 0.000000
-0.050000 0.175000 0.000000
-0.050000 0.200000 0.000000
-0.050000 0.225000 0.000000
-0.050000 0.250000 0.000000
-0.050000 0.275000 0.000000
-0.050000 0.300000 0.000000
-0.050000 0.325000 0.000000
-0.050000 0.350000 0.000000
-0.050000 0.375000 0.000000
-0.050000 0.400000 0.000000
-0.050000 0.425000 0.000000
-0.050000 0.450000 0.000000
-0.050000 0.475000 0.000000
-0.050000 0.500000 0.000000
-0.050000 0.525000 0.000000
-0.050000 0.550000 0.000000
-0.050000 0.575000 0.000000
-0.050000 0.600000 0.000000
-0.025000 -0.075000 0.000000
-0.025000 -0.050000 0.000000
-0.025000 -0.025000 0.000000
-0.025000 0.000000 0.000000
-0.025000 0.025000 0.000000
-0.025000 0.050000 0.000000
-0.025000 0.075000 0.000000
-0.025000 0.100000 0.000000
-0.025000 0.125000 0.000000
-0.025000 0.150000 0.000000
-0.025000 0.175000 0.000000
-0.025000 0.200000 0.000000
-0.025000 0.225000 0.000000
-0.025000 0.250000 0.000000
-0.025000 0.275000 0.000000
-0.025000 0.300000 0.000000
-0.025000 0.325000 0.000000
-0.025000 0.350000 0.000000
-0.025000 0.375000 0.000000
-0.025000 0.400000 0.000000
-0.025000 0.425000 0.000000
-0.025000 0.450000 0.000000
-0.025000 0.475000 0.000000
-0.025000 0.500000 0.000000
-0.025000 0.525000 0.000000
-0.025000 0.550000 0.000000
-0.025000 0.575000 0.000000
-0.025000 0.600000 0.000000
0.000000 -0.075000 0.000000
0.000000 -0.050000 0.000000
0.000000 -0.025000 0.000000
0.000000 0.000000 0.000000
0.000000 0.025000 0.000000
0.000000 0.050000 0.000000
0.000000 0.075000 0.000000
0.000000 0.100000 0.000000
0.000000 0.125000 0.000000
0.000000 0.150000 0.000000
0.000000 0.175000 0.000000
0.000000 0.200000 0.000000
0.000000 0.225000 0.000000
0.000000 0.250000 0.000000
0.000000 0.275000 0.000000
0.000000 0.300000 0.000000
0.000000 0.325000 0.000000
0.000000 0.350000 0.000000
0.000000 0.375000 0.000000
0.000000 0.400000 0.000000
0.000000 0.425000 0.000000
0.000000 0.450000 0.000000
0.000000 0.475000 0.000000
0.000000 0.500000 0.000000
0.000000 0.525000 0.000000
0.000000 0.550000 0.000000
0.000000 0.575000 0.000000
0.000000 0.600000 0.000000
0.025000 -0.075000 0.000000
0.025000 -0.050000 0.000000
0.025000 -0.025000 0.000000
0.025000 0.000000 0.000000
0.130626 0.046220 0.000000
0.215668 0.062419 0.000000
0.155154 0.039955 0.000000
0.175777 0.021747 0.000000
0.261956 0.027189 0.000000
0.089884 0.084136 0.000000
0.332304 0.035542 0.000000
0.212696 0.024445 0.000000
0.193080 0.032970 0.000000
0.025993 0.206629 0.000000
0.237690 0.025490 0.000000
0.041693 0.150990 0.000000
0.131648 0.022489 0.000000
0.044167 0.054620 0.000000
0.105331 0.100352 0.000000
0.041922 0.022820 0.000000
0.057274 0.186334 0.000000
0.087830 0.021386 0.000000
0.079590 0.135820 0.000000
0.115737 0.036013 0.000000
0.050000 -0.075000 0.000000
0.050000 -0.050000 0.000000
0.050000 -0.025000 0.000000
0.050000 0.000000 0.000000
0.233362 0.138953 0.000000
0.153920 0.181013 0.000000
0.221924 0.155751 0.000000
0.021074 0.031561 0.000000
0.018811 0.163212 0.000000
0.488201 0.050529 0.000000
0.194729 0.083349 0.000000
0.621113 0.042796 0.000000
0.232424 0.112826 0.000000
0.266178 0.164015 0.000000
0.044861 0.073820 0.000000
0.274170 0.054422 0.000000
0.082954 0.164899 0.000000
0.199031 0.126344 0.000000
0.097777 0.069218 0.000000
0.021466 0.095123 0.000000
0.189696 0.064289 0.000000
0.248833 0.085320 0.000000
0.050973 0.229694 0.000000
0.083559 0.045857 0.000000
0.075000 -0.075000 0.000000
0.075000 -0.050000 0.000000
0.075000 -0.025000 0.000000
0.075000 0.000000 0.000000
0.178272 0.117646 0.000000
0.163156 0.106145 0.000000
0.431196 0.060556 0.000000
0.360945 0.018074 0.000000
0.586256 0.099482 0.000000
0.697944 0.021970 0.000000
0.724543 0.044020 0.000000
0.033914 0.116121 0.000000
0.521810 0.096531 0.000000
0.692807 0.038005 0.000000
0.483008 0.024748 0.000000
0.153807 0.132019 0.000000
0.231177 0.049583 0.000000
0.263185 0.097192 0.000000
0.286598 0.023173 0.000000
0.068544 0.113433 0.000000
0.202112 0.105343 0.000000
0.024464 0.065840 0.000000
0.158847 0.077321 0.000000
0.140206 0.079352 0.000000
0.100000 -0.075000 0.000000
0.100000 -0.050000 0.000000
0.100000 -0.025000 0.000000
0.100000 0.000000 0.000000
0.529888 0.022825 0.000000
0.452705 0.101965 0.000000
0.545507 0.046929 0.000000
0.837240 0.024182 0.000000
0.253792 0.053743 0.000000
0.795497 0.025501 0.000000
0.725175 0.090253 0.000000
0.302258 0.050465 0.000000
0.741221 0.019753 0.000000
0.746320 0.045140 0.000000
0.507248 0.029092 0.000000
0.427402 0.125630 0.000000
0.607529 0.062626 0.000000
0.656380 0.043602 0.000000
0.237330 0.201053 0.000000
0.311112 0.021996 0.000000
0.584670 0.023478 0.000000
0.335168 0.092704 0.000000
0.418205 0.069992 0.000000
0.277607 0.073808 0.000000
0.125000 -0.075000 0.000000
0.125000 -0.050000 0.000000
0.125000 -0.025000 0.000000
0.125000 0.000000 0.000000
0.764307 0.094041 0.000000
0.803898 0.150514 0.000000
1.006662 0.090751 0.000000
0.858232 0.027150 0.000000
0.683136 0.112237 0.000000
0.639236 0.024407 0.000000
0.295678 0.127488 0.000000
0.609003 0.116241 0.000000
0.824081 0.072133 0.000000
0.785892 0.072436 0.000000
0.946310 0.059820 0.000000
0.617449 0.082027 0.000000
0.561267 0.023099 0.000000
0.565271 0.053987 0.000000
0.458484 0.024672 0.000000
0.588897 0.076657 0.000000
0.442075 0.139640 0.000000
0.134941 0.110953 0.000000
0.546072 0.069780 0.000000
0.039264 0.183766 0.000000
0.150000 -0.075000 0.000000
0.150000 -0.050000 0.000000
0.150000 -0.025000 0.000000
0.150000 0.000000 0.000000
0.315020 0.060564 0.000000
0.961450 0.018454 0.000000
0.795102 0.113308 0.000000
0.360143 0.061451 0.000000
0.909964 0.036201 0.000000
0.166948 0.055963 0.000000
0.960722 0.066500 0.000000
0.511900 0.073995 0.000000
0.991491 0.073827 0.000000
0.791173 0.133220 0.000000
0.883467 0.043445 0.000000
0.767640 0.026086 0.000000
0.861651 0.054182 0.000000
0.838943 0.105372 0.000000
0.816752 0.030724 0.000000
0.684131 0.064014 0.000000
0.665543 0.027070 0.000000
0.698430 0.071907 0.000000
0.722222 0.063550 0.000000
0.385918 0.113440 0.000000
0.175000 -0.075000 0.000000
0.175000 -0.050000 0.000000
0.175000 -0.025000 0.000000
0.175000 0.000000 0.000000
0.029662 0.132791 0.000000
0.725177 0.111241 0.000000
0.959678 0.117975 0.000000
0.926739 0.124264 0.000000
0.979134 0.037815 0.000000
0.094263 0.171569 0.000000
0.886942 0.023235 0.000000
0.370642 0.040235 0.000000
0.429933 0.024343 0.000000
0.927503 0.026969 0.000000
0.651779 0.117202 0.000000
0.789861 0.100298 0.000000
0.572743 0.103327 0.000000
0.944551 0.042553 0.000000
0.999248 0.049273 0.000000
0.457026 0.044461 0.000000
0.999905 0.026945 0.000000
0.540843 0.135164 0.000000
0.274541 0.113889 0.000000
0.535841 0.112108 0.000000
0.200000 -0.075000 0.000000
0.200000 -0.050000 0.000000
0.200000 -0.025000 0.000000
0.200000 0.000000 0.000000
0.463779 0.084030 0.000000
0.121382 0.077673 0.000000
0.375544 0.085893 0.000000
0.856584 0.072065 0.000000
0.409670 0.039130 0.000000
0.416747 0.139259 0.000000
0.653840 0.065372 0.000000
0.973439 0.083459 0.000000
0.498033 0.127443 0.000000
0.050443 0.200673 0.000000
0.868302 0.082164 0.000000
0.764504 0.055918 0.000000
0.065212 0.029950 0.000000
0.520030 0.049010 0.000000
0.707496 0.115521 0.000000
0.103278 0.156573 0.000000
0.787287 0.045695 0.000000
0.478880 0.130073 0.000000
0.947856 0.112714 0.000000
0.749753 0.080023 0.000000
0.225000 -0.075000 0.000000
0.225000 -0.050000 0.000000
0.225000 -0.025000 0.000000
0.225000 0.000000 0.000000
0.356034 0.095447 0.000000
0.909821 0.058334 0.000000
0.643925 0.100767 0.000000
0.221182 0.084943 0.000000
0.138014 0.138322 0.000000
0.065435 0.266077 0.000000
0.547036 0.094352 0.000000
0.970378 0.107312 0.000000
0.692807 0.098244 0.000000
0.185771 0.146100 0.000000
0.750970 0.110007 0.000000
0.025592 0.256529 0.000000
0.399183 0.024637 0.000000
0.494465 0.071419 0.000000
0.095595 0.124693 0.000000
0.373106 0.126087 0.000000
0.587097 0.052056 0.000000
0.069962 0.060519 0.000000
0.338654 0.125225 0.000000
0.385228 0.054008 0.000000
0.250000 -0.075000 0.000000
0.250000 -0.050000 0.000000
0.250000 -0.025000 0.000000
0.250000 0.000000 0.000000
0.807438 0.069224 0.000000
0.475826 0.111835 0.000000
0.390719 0.138129 0.000000
0.409074 0.100494 0.000000
0.337930 0.053459 0.000000
0.498996 0.106135 0.000000
0.245590 0.123702 0.000000
0.318892 0.090938 0.000000
0.307575 0.108995 0.000000
0.622316 0.107380 0.000000
0.317937 0.126668 0.000000
0.023029 0.233040 0.000000
0.119198 0.123478 0.000000
0.612240 0.024743 0.000000
0.460941 0.065932 0.000000
0.396202 0.083073 0.000000
0.432797 0.099134 0.000000
0.830979 0.054724 0.000000
0.057916 0.104943 0.000000
0.649797 0.080401 0.000000
0.275000 -0.075000 0.000000
0.275000 -0.050000 0.000000
0.275000 -0.025000 0.000000
0.275000 0.000000 0.000000
0.300000 -0.075000 0.000000
0.300000 -0.050000 0.000000
0.300000 -0.025000 0.000000
0.300000 0.000000 0.000000
0.325000 -0.075000 0.000000
0.325000 -0.050000 0.000000
0.325000 -0.025000 0.000000
0.325000 0.000000 0.000000
0.350000 -0.075000 0.000000
0.350000 -0.050000 0.000000
0.350000 -0.025000 0.000000
0.350000 0.000000 0.000000
0.375000 -0.075000 0.000000
0.375000 -0.050000 0.000000
0.375000 -0.025000 0.000000
0.375000 0.000000 0.000000
0.400000 -0.075000 0.000000
0.400000 -0.050000 0.000000
0.400000 -0.025000 0.000000
0.400000 0.000000 0.000000
0.425000 -0.075000 0.000000
0.425000 -0.050000 0.000000
0.425000 -0.025000 0.000000
0.425000 0.000000 0.000000
0.450000 -0.075000 0.000000
0.450000 -0.050000 0.000000
0.450000 -0.025000 0.000000
0.450000 0.000000 0.000000
0.475000 -0.075000 0.000000
0.475000 -0.050000 0.000000
0.475000 -0.025000 0.000000
0.475000 0.000000 0.000000
0.500000 -0.075000 0.000000
0.500000 -0.050000 0.000000
0.500000 -0.025000 0.000000
0.500000 0.000000 0.000000
0.525000 -0.075000 0.000000
0.525000 -0.050000 0.000000
0.525000 -0.025000 0.000000
0.525000 0.000000 0.000000
0.550000 -0.075000 0.000000
0.550000 -0.050000 0.000000
0.550000 -0.025000 0.000000
0.550000 0.000000 0.000000
0.575000 -0.075000 0.000000
0.575000 -0.050000 0.000000
0.575000 -0.025000 0.000000
0.575000 0.000000 0.000000
0.600000 -0.075000 0.000000
0.600000 -0.050000 0.000000
0.600000 -0.025000 0.000000
0.600000 0.000000 0.000000
0.625000 -0.075000 0.000000
0.625000 -0.050000 0.000000
0.625000 -0.025000 0.000000
0.625000 0.000000 0.000000
0.650000 -0.075000 0.000000
0.650000 -0.050000 0.000000
0.650000 -0.025000 0.000000
0.650000 0.000000 0.000000
0.675000 -0.075000 0.000000
0.675000 -0.050000 0.000000
0.675000 -0.025000 0.000000
0.675000 0.000000 0.000000
0.700000 -0.075000 0.000000
0.700000 -0.050000 0.000000
0.700000 -0.025000 0.000000
0.700000 0.000000 0.000000
0.725000 -0.075000 0.000000
0.725000 -0.050000 0.000000
0.725000 -0.025000 0.000000
0.725000 0.000000 0.000000
0.750000 -0.075000 0.000000
0.750000 -0.050000 0.000000
0.750000 -0.025000 0.000000
0.750000 0.000000 0.000000
0.775000 -0.075000 0.000000
0.775000 -0.050000 0.000000
0.775000 -0.025000 0.000000
0.775000 0.000000 0.000000
0.800000 -0.075000 0.000000
0.800000 -0.050000 0.000000
0.800000 -0.025000 0.000000
0.800000 0.000000 0.000000
0.825000 -0.075000 0.000000
0.825000 -0.050000 0.000000
0.825000 -0.025000 0.000000
0.825000 0.000000 0.000000
0.850000 -0.075000 0.000000
0.850000 -0.050000 0.000000
0.850000 -0.025000 0.000000
0.850000 0.000000 0.000000
0.875000 -0.075000 0.000000
0.875000 -0.050000 0.000000
0.875000 -0.025000 0.000000
0.875000 0.000000 0.000000
0.900000 -0.075000 0.000000
0.900000 -0.050000 0.000000
0.900000 -0.025000 0.000000
0.900000 0.000000 0.000000
0.925000 -0.075000 0.000000
0.925000 -0.050000 0.000000
0.925000 -0.025000 0.000000
0.925000 0.000000 0.000000
0.950000 -0.075000 0.000000
0.950000 -0.050000 0.000000
0.950000 -0.025000 0.000000
0.950000 0.000000 0.000000
0.975000 -0.075000 0.000000
0.975000 -0.050000 0.000000
0.975000 -0.025000 0.000000
0.975000 0.000000 0.000000
1.000000 -0.075000 0.000000
1.000000 -0.050000 0.000000
1.000000 -0.025000 0.000000
1.000000 0.000000 0.000000
1.025000 -0.075000 0.000000
1.025000 -0.050000 0.000000
1.025000 -0.025000 0.000000
1.025000 0.000000 0.000000
1.025000 0.025000 0.000000
1.025000 0.050000 0.000000
1.025000 0.075000 0.000000
1.025000 0.100000 0.000000
1.025000 0.125000 0.000000
1.025000 0.150000 0.000000
1.025000 0.175000 0.000000
1.025000 0.200000 0.000000
1.025000 0.225000 0.000000
1.025000 0.250000 0.000000
1.025000 0.275000 0.000000
1.025000 0.300000 0.000000
1.025000 0.325000 0.000000
1.025000 0.350000 0.000000
1.025000 0.375000 0.000000
1.025000 0.400000 0.000000
1.025000 0.425000 0.000000
1.025000 0.450000 0.000000
1.025000 0.475000 0.000000
1.025000 0.500000 0.000000
1.025000 0.525000 0.000000
1.025000 0.550000 0.000000
1.025000 0.575000 0.000000
1.025000 0.600000 0.000000
1.050000 -0.075000 0.000000
1.050000 -0.050000 0.000000
1.050000 -0.025000 0.000000
1.050000 0.000000 0.000000
1.050000 0.025000 0.000000
1.050000 0.050000 0.000000
1.050000 0.075000 0.000000
1.050000 0.100000 0.000000
1.050000 0.125000 0.000000
1.050000 0.150000 0.000000
1.050000 0.175000 0.000000
1.050000 0.200000 0.000000
1.050000 0.225000 0.000000
1.050000 0.250000 0.000000
1.050000 0.275000 0.000000
1.050000 0.300000 0.000000
1.050000 0.325000 0.000000
1.050000 0.350000 0.000000
1.050000 0.375000 0.000000
1.050000 0.400000 0.000000
1.050000 0.425000 0.000000
1.050000 0.450000 0.000000
1.050000 0.475000 0.000000
1.050000 0.500000 0.000000
1.050000 0.525000 0.000000
1.050000 0.550000 0.000000
1.050000 0.575000 0.000000
1.050000 0.600000 0.000000
1.075000 -0.075000 0.000000
1.075000 -0.050000 0.000000
1.075000 -0.025000 0.000000
1.075000 0.000000 0.000000
1.075000 0.025000 0.000000
1.075000 0.050000 0.000000
1.075000 0.075000 0.000000
1.075000 0.100000 0.000000
1.075000 0.125000 0.000000
1.075000 0.150000 0.000000
1.075000 0.175000 0.000000
1.075000 0.200000 0.000000
1.075000 0.225000 0.000000
1.075000 0.250000 0.000000
1.075000 0.275000 0.000000
1.075000 0.300000 0.000000
1.075000 0.325000 0.000000
1.075000 0.350000 0.000000
1.075000 0.375000 0.000000
1.075000 0.400000 0.000000
1.075000 0.425000 0.000000
1.075000 0.450000 0.000000
1.075000 0.475000 0.000000
1.075000 0.500000 0.000000
1.075000 0.525000 0.000000
1.075000 0.550000 0.000000
1.075000 0.575000 0.000000
1.075000 0.600000 0.000000
1.100000 -0.075000 0.000000
1.100000 -0.050000 0.000000
1.100000 -0.025000 0.000000
1.100000 0.000000 0.000000
1.100000 0.025000 0.000000
1.100000 0.050000 0.000000
1.100000 0.075000 0.000000
1.100000 0.100000 0.000000
1.100000 0.125000 0.000000
1.100000 0.150000 0.000000
1.100000 0.175000 0.000000
1.100000 0.200000 0.000000
1.100000 0.225000 0.000000
1.100000 0.250000 0.000000
1.100000 0.275000 0.000000
1.100000 0.300000 0.000000
1.100000 0.325000 0.000000
1.100000 0.350000 0.000000
1.100000 0.375000 0.000000
1.100000 0.400000 0.000000
1.100000 0.425000 0.000000
1.100000 0.450000 0.000000
1.100000 0.475000 0.000000
1.100000 0.500000 0.000000
1.100000 0.525000 0.000000
1.100000 0.550000 0.000000
1.100000 0.575000 0.000000
1.100000 0.600000 0.000000
</DataArray>
</Points>
<PointData>
<DataArray NumberOfComponents='1' type='Int32' Name='ParticleType' format='ascii'>
3
3
3
3
3
3
3
3
3
3
3
3
3
3
3
3
3
3
3
3
3
3
3
3
3
3
2
2
3
3
3
3
3
3
3
3
3
3
3
3
3
3
3
3
3
3
3
3
3
3
3
3
3
3
2
2
3
3
2
2
2
2
2
2
2
2
2
2
2
2
2
2
2
2
2
2
2
2
2
2
2
2
2
2
3
3
2
2
2
2
2
2
2
2
2
2
2
2
2
2
2
2
2
2
2
2
2
2
2
2
2
2
3
3
2
2
0
0
0
0
0
0
0
0
0
0
0
0
0
0
0
0
0
0
0
0
3
3
2
2
0
0
0
0
0
0
0
0
0
0
0
0
0
0
0
0
0
0
0
0
3
3
2
2
0
0
0
0
0
0
0
0
0
0
0
0
0
0
0
0
0
0
0
0
3
3
2
2
0
0
0
0
0
0
0
0
0
0
0
0
0
0
0
0
0
0
0
0
3
3
2
2
0
0
0
0
0
0
0
0
0
0
0
0
0
0
0
0
0
0
0
0
3
3
2
2
0
0
0
0
0
0
0
0
0
0
0
0
0
0
0
0
0
0
0
0
3
3
2
2
0
0
0
0
0
0
0
0
0
0
0
0
0
0
0
0
0
0
0
0
3
3
2
2
0
0
0
0
0
0
0
0
0
0
0
0
0
0
0
0
0
0
0
0
3
3
2
2
0
0
0
0
0
0
0
0
0
0
0
0
0
0
0
0
0
0
0
0
3
3
2
2
0
0
0
0
0
0
0
0
0
0
0
0
0
0
0
0
0
0
0
0
3
3
2
2
3
3
2
2
3
3
2
2
3
3
2
2
3
3
2
2
3
3
2
2
3
3
2
2
3
3
2
2
3
3
2
2
3
3
2
2
3
3
2
2
3
3
2
2
3
3
2
2
3
3
2
2
3
3
2
2
3
3
2
2
3
3
2
2
3
3
2
2
3
3
2
2
3
3
2
2
3
3
2
2
3
3
2
2
3
3
2
2
3
3
2
2
3
3
2
2
3
3
2
2
3
3
2
2
3
3
2
2
3
3
2
2
3
3
2
2
3
3
2
2
2
2
2
2
2
2
2
2
2
2
2
2
2
2
2
2
2
2
2
2
2
2
2
2
3
3
2
2
2
2
2
2
2
2
2
2
2
2
2
2
2
2
2
2
2
2
2
2
2
2
2
2
3
3
3
3
3
3
3
3
3
3
3
3
3
3
3
3
3
3
3
3
3
3
3
3
3
3
2
2
3
3
3
3
3
3
3
3
3
3
3
3
3
3
3
3
3
3
3
3
3
3
3
3
3
3
2
2
</DataArray>
<DataArray NumberOfComponents='1' type='Float32' Name='Velocity' format='ascii'>
0.000000
0.000000
0.000000
0.000000
0.000000
0.000000
0.000000
0.000000
0.000000
0.000000
0.000000
0.000000
0.000000
0.000000
0.000000
0.000000
0.000000
0.000000
0.000000
0.000000
0.000000
0.000000
0.000000
0.000000
0.000000
0.000000
0.000000
0.000000
0.000000
0.000000
0.000000
0.000000
0.000000
0.000000
0.000000
0.000000
0.000000
0.000000
0.000000
0.000000
0.000000
0.000000
0.000000
0.000000
0.000000
0.000000
0.000000
0.000000
0.000000
0.000000
0.000000
0.000000
0.000000
0.000000
0.000000
0.000000
0.000000
0.000000
0.000000
0.000000
0.000000
0.000000
0.000000
0.000000
0.000000
0.000000
0.000000
0.000000
0.000000
0.000000
0.000000
0.000000
0.000000
0.000000
0.000000
0.000000
0.000000
0.000000
0.000000
0.000000
0.000000
0.000000
0.000000
0.000000
0.000000
0.000000
0.000000
0.000000
0.000000
0.000000
0.000000
0.000000
0.000000
0.000000
0.000000
0.000000
0.000000
0.000000
0.000000
0.000000
0.000000
0.000000
0.000000
0.000000
0.000000
0.000000
0.000000
0.000000
0.000000
0.000000
0.000000
0.000000
0.000000
0.000000
0.000000
0.000000
0.724258
0.512800
0.350424
0.180225
0.710262
0.354941
0.610995
0.480313
0.172057
0.707465
0.225125
0.804278
0.245589
0.456216
0.488784
0.283382
0.713045
0.162339
0.717285
0.464293
0.000000
0.000000
0.000000
0.000000
1.457242
1.693312
1.578309
0.243273
0.494243
0.502381
0.325638
0.493531
1.382120
0.651272
0.587465
1.007793
0.837218
1.111333
0.381017
0.407075
0.459195
0.499441
1.313473
0.342822
0.000000
0.000000
0.000000
0.000000
0.703340
0.289695
0.456554
0.204837
1.022869
0.251178
0.312415
0.633770
0.957645
0.484476
0.416275
1.267232
0.610689
0.559588
0.293340
0.501729
0.930164
0.222689
0.486161
0.289477
0.000000
0.000000
0.000000
0.000000
0.518569
0.837722
0.647892
0.332349
0.324376
0.351886
0.586120
0.329672
0.277258
0.302827
0.571165
1.147898
0.760427
0.488025
1.225652
0.824026
0.602462
0.621246
0.572048
0.458762
0.000000
0.000000
0.000000
0.000000
0.185347
0.988087
0.233342
0.216931
0.937128
0.662242
0.920975
1.286916
0.273540
0.338196
0.314016
0.677486
0.449548
0.648433
0.544212
0.893006
1.209914
0.463759
0.627068
0.097198
0.000000
0.000000
0.000000
0.000000
0.776736
0.096888
0.117152
0.977873
0.401106
0.419524
0.391473
0.982101
0.309526
1.577213
0.311442
0.389780
0.313895
0.326382
0.235960
0.510878
0.384393
0.572122
0.426740
0.808093
0.000000
0.000000
0.000000
0.000000
0.697321
0.702933
0.371047
0.690157
0.295117
0.585228
0.451654
0.346180
0.563127
0.217814
0.736791
0.559977
1.086422
0.308402
0.268502
0.259569
0.211749
0.500840
0.963846
1.026746
0.000000
0.000000
0.000000
0.000000
1.015255
0.396475
0.369732
0.812688
0.425064
1.175453
0.426727
0.010050
0.830358
1.120480
0.404555
0.624766
0.245072
0.546553
0.736145
0.824780
0.564939
0.933024
0.289422
0.220463
0.000000
0.000000
0.000000
0.000000
0.849183
0.400275
0.428395
0.462787
1.307658
0.620237
0.920774
0.380458
0.519546
1.456740
0.517894
1.882680
0.542558
0.736284
0.530167
0.844503
0.556910
0.326033
0.876538
0.772440
0.000000
0.000000
0.000000
0.000000
0.503844
0.949316
1.273241
0.638790
0.458501
1.193686
1.189190
0.477348
0.744370
1.071559
0.704595
1.216237
0.322731
0.413245
0.712674
0.748186
0.407505
0.460874
0.311530
0.833286
0.000000
0.000000
0.000000
0.000000
0.000000
0.000000
0.000000
0.000000
0.000000
0.000000
0.000000
0.000000
0.000000
0.000000
0.000000
0.000000
0.000000
0.000000
0.000000
0.000000
0.000000
0.000000
0.000000
0.000000
0.000000
0.000000
0.000000
0.000000
0.000000
0.000000
0.000000
0.000000
0.000000
0.000000
0.000000
0.000000
0.000000
0.000000
0.000000
0.000000
0.000000
0.000000
0.000000
0.000000
0.000000
0.000000
0.000000
0.000000
0.000000
0.000000
0.000000
0.000000
0.000000
0.000000
0.000000
0.000000
0.000000
0.000000
0.000000
0.000000
0.000000
0.000000
0.000000
0.000000
0.000000
0.000000
0.000000
0.000000
0.000000
0.000000
0.000000
0.000000
0.000000
0.000000
0.000000
0.000000
0.000000
0.000000
0.000000
0.000000
0.000000
0.000000
0.000000
0.000000
0.000000
0.000000
0.000000
0.000000
0.000000
0.000000
0.000000
0.000000
0.000000
0.000000
0.000000
0.000000
0.000000
0.000000
0.000000
0.000000
0.000000
0.000000
0.000000
0.000000
0.000000
0.000000
0.000000
0.000000
0.000000
0.000000
0.000000
0.000000
0.000000
0.000000
0.000000
0.000000
0.000000
0.000000
0.000000
0.000000
0.000000
0.000000
0.000000
0.000000
0.000000
0.000000
0.000000
0.000000
0.000000
0.000000
0.000000
0.000000
0.000000
0.000000
0.000000
0.000000
0.000000
0.000000
0.000000
0.000000
0.000000
0.000000
0.000000
0.000000
0.000000
0.000000
0.000000
0.000000
0.000000
0.000000
0.000000
0.000000
0.000000
0.000000
0.000000
0.000000
0.000000
0.000000
0.000000
0.000000
0.000000
0.000000
0.000000
0.000000
0.000000
0.000000
0.000000
0.000000
0.000000
0.000000
0.000000
0.000000
0.000000
0.000000
0.000000
0.000000
0.000000
0.000000
0.000000
0.000000
0.000000
0.000000
0.000000
0.000000
0.000000
0.000000
0.000000
0.000000
0.000000
0.000000
0.000000
0.000000
0.000000
0.000000
0.000000
0.000000
0.000000
0.000000
0.000000
0.000000
0.000000
0.000000
0.000000
0.000000
0.000000
0.000000
0.000000
0.000000
0.000000
0.000000
0.000000
0.000000
0.000000
0.000000
0.000000
0.000000
0.000000
0.000000
0.000000
0.000000
0.000000
0.000000
0.000000
0.000000
0.000000
0.000000
0.000000
0.000000
0.000000
0.000000
0.000000
0.000000
</DataArray>
<DataArray NumberOfComponents='1' type='Float32' Name='pressure' format='ascii'>
0.000000
0.000000
0.000000
0.000000
0.000000
0.000000
0.000000
0.000000
0.000000
0.000000
0.000000
0.000000
0.000000
0.000000
0.000000
0.000000
0.000000
0.000000
0.000000
0.000000
0.000000
0.000000
0.000000
0.000000
0.000000
0.000000
0.000000
0.000000
0.000000
0.000000
0.000000
0.000000
0.000000
0.000000
0.000000
0.000000
0.000000
0.000000
0.000000
0.000000
0.000000
0.000000
0.000000
0.000000
0.000000
0.000000
0.000000
0.000000
0.000000
0.000000
0.000000
0.000000
0.000000
0.000000
0.000000
0.000000
0.000000
0.000000
2362.823730
2455.188721
3586.263428
2363.670898
2177.349609
2348.173828
37.075184
2228.689453
2319.690430
48.104340
571.165833
0.000000
0.000000
0.000000
0.000000
0.000000
0.000000
0.000000
0.000000
0.000000
0.000000
0.000000
0.000000
0.000000
0.000000
0.000000
0.000000
0.000000
2226.314941
2212.560547
3165.324219
357.656097
1433.091187
2022.544678
0.000000
913.587952
0.000000
0.000000
97.012680
0.000000
0.000000
0.000000
0.000000
0.000000
0.000000
0.000000
0.000000
0.000000
0.000000
0.000000
0.000000
0.000000
0.000000
0.000000
0.000000
0.000000
2018.090454
1117.187378
3065.607178
712.417114
1610.354614
351.515045
0.000000
284.418732
0.000000
662.518066
718.931885
0.000000
1217.396362
0.000000
2307.201172
1863.278931
73.621674
1329.038330
0.000000
1640.847290
0.000000
1905.537842
0.000000
0.000000
2982.573486
2757.031250
0.000000
0.000000
0.000000
1517.276245
0.000000
0.000000
1147.815308
0.000000
1029.602783
0.000000
0.000000
991.048706
0.000000
0.000000
1368.777954
0.000000
507.079651
0.000000
0.000000
2355.615723
0.000000
0.000000
3236.254639
3258.159424
945.787354
0.000000
0.000000
0.000000
10.293080
542.941101
124.943825
0.000000
0.000000
0.000000
681.235291
0.000000
1165.156616
0.000000
0.000000
824.552612
0.000000
1331.803101
0.000000
1984.519409
0.000000
0.000000
2978.545410
1184.010498
0.000000
0.000000
1408.726929
2699.698730
1900.843262
1308.211792
1221.175171
106.753342
749.022156
1479.050781
1075.274292
0.000000
196.453827
708.351807
0.000000
438.011871
0.000000
2031.316040
0.000000
0.000000
0.000000
0.000000
2557.426758
923.578735
0.000000
0.000000
0.000000
881.159302
0.000000
0.000000
0.000000
0.000000
0.000000
0.000000
0.000000
0.000000
79.161728
363.462585
1810.870239
644.349915
0.000000
2772.472412
0.000000
1507.508667
0.000000
0.000000
1434.290405
0.000000
189.513885
269.145752
0.000000
0.000000
0.000000
1085.533813
0.000000
1602.144043
192.080627
0.000000
0.000000
145.329102
298.630951
0.000000
1718.373291
0.000000
1166.556519
267.876068
0.000000
475.292908
0.000000
0.000000
2858.587891
2766.433838
0.000000
0.000000
0.000000
0.000000
0.000000
0.000000
2730.231934
0.000000
0.000000
0.000000
0.000000
0.000000
0.000000
1574.590332
0.000000
300.411469
0.000000
0.000000
0.000000
0.000000
0.000000
0.000000
1194.861694
2607.134033
393.748627
39.831146
0.000000
0.000000
0.000000
0.000000
0.000000
0.000000
0.000000
0.000000
0.000000
1300.209961
2073.663818
128.483597
0.000000
0.000000
378.312866
0.000000
0.000000
0.000000
0.000000
0.000000
808.793335
735.375854
0.000000
0.000000
0.000000
0.000000
0.000000
0.000000
0.000000
0.000000
0.000000
0.000000
0.000000
0.000000
168.025375
1059.060059
1515.615356
0.000000
1639.936401
0.000000
0.000000
0.000000
0.000000
0.000000
258.414734
0.000000
964.477234
0.000000
0.000000
0.000000
504.258179
0.000000
0.000000
195.660629
0.000000
0.000000
0.000000
0.000000
1108.793335
300.645050
645.128601
1336.554199
0.000000
1383.682129
0.000000
495.058746
0.000000
0.000000
1536.582764
1599.677002
0.000000
0.000000
3243.467041
3818.265137
0.000000
0.000000
2301.541016
0.000000
0.000000
0.000000
3899.472900
1316.525513
0.000000
0.000000
3212.827393
785.698364
0.000000
0.000000
1072.065796
0.000000
0.000000
0.000000
626.788696
17.617226
0.000000
0.000000
183.207962
296.733643
0.000000
0.000000
157.449249
352.855682
0.000000
0.000000
0.000000
0.000000
0.000000
0.000000
1636.008057
1452.370605
0.000000
0.000000
1949.692627
1593.280884
0.000000
0.000000
2643.279541
2566.179443
0.000000
0.000000
1404.511719
1612.948486
0.000000
0.000000
518.911621
976.237122
0.000000
0.000000
0.000000
0.000000
0.000000
0.000000
0.000000
0.000000
0.000000
0.000000
1912.358154
687.665039
0.000000
0.000000
2293.375977
0.000000
0.000000
0.000000
3143.524658
3160.924805
0.000000
0.000000
676.893372
0.000000
0.000000
0.000000
696.158020
546.632141
0.000000
0.000000
733.266968
1601.810547
0.000000
0.000000
664.710754
1263.706787
0.000000
0.000000
787.407349
98.900032
0.000000
0.000000
589.173523
0.000000
0.000000
0.000000
247.276688
0.000000
0.000000
0.000000
2898.107666
2052.310303
0.000000
0.000000
2152.939453
160.187775
0.000000
0.000000
0.000000
0.000000
0.000000
0.000000
0.000000
0.000000
79.921417
445.371552
1381.782227
0.000000
0.000000
0.000000
0.000000
0.000000
0.000000
0.000000
0.000000
0.000000
0.000000
0.000000
0.000000
0.000000
0.000000
0.000000
0.000000
0.000000
0.000000
0.000000
0.000000
0.000000
0.000000
0.000000
0.000000
0.000000
0.000000
315.523010
2433.326904
2988.982178
0.000000
0.000000
0.000000
0.000000
0.000000
0.000000
0.000000
0.000000
0.000000
0.000000
0.000000
0.000000
0.000000
0.000000
0.000000
0.000000
0.000000
0.000000
0.000000
0.000000
0.000000
0.000000
0.000000
0.000000
0.000000
0.000000
0.000000
0.000000
0.000000
0.000000
0.000000
0.000000
0.000000
0.000000
0.000000
0.000000
0.000000
0.000000
0.000000
0.000000
0.000000
0.000000
0.000000
0.000000
0.000000
0.000000
0.000000
0.000000
0.000000
0.000000
0.000000
0.000000
0.000000
0.000000
0.000000
0.000000
0.000000
0.000000
0.000000
0.000000
0.000000
0.000000
0.000000
0.000000
0.000000
0.000000
0.000000
0.000000
0.000000
0.000000
0.000000
0.000000
0.000000
0.000000
0.000000
0.000000
</DataArray>
</PointData>
<Cells>
<DataArray type='Int32' Name='connectivity' format='ascii'>
0
1
2
3
4
5
6
7
8
9
10
11
12
13
14
15
16
17
18
19
20
21
22
23
24
25
26
27
28
29
30
31
32
33
34
35
36
37
38
39
40
41
42
43
44
45
46
47
48
49
50
51
52
53
54
55
56
57
58
59
60
61
62
63
64
65
66
67
68
69
70
71
72
73
74
75
76
77
78
79
80
81
82
83
84
85
86
87
88
89
90
91
92
93
94
95
96
97
98
99
100
101
102
103
104
105
106
107
108
109
110
111
112
113
114
115
116
117
118
119
120
121
122
123
124
125
126
127
128
129
130
131
132
133
134
135
136
137
138
139
140
141
142
143
144
145
146
147
148
149
150
151
152
153
154
155
156
157
158
159
160
161
162
163
164
165
166
167
168
169
170
171
172
173
174
175
176
177
178
179
180
181
182
183
184
185
186
187
188
189
190
191
192
193
194
195
196
197
198
199
200
201
202
203
204
205
206
207
208
209
210
211
212
213
214
215
216
217
218
219
220
221
222
223
224
225
226
227
228
229
230
231
232
233
234
235
236
237
238
239
240
241
242
243
244
245
246
247
248
249
250
251
252
253
254
255
256
257
258
259
260
261
262
263
264
265
266
267
268
269
270
271
272
273
274
275
276
277
278
279
280
281
282
283
284
285
286
287
288
289
290
291
292
293
294
295
296
297
298
299
300
301
302
303
304
305
306
307
308
309
310
311
312
313
314
315
316
317
318
319
320
321
322
323
324
325
326
327
328
329