<?xml version='1.0' encoding='UTF-8'?>
<VTKFile xmlns='VTK' byte_order='LittleEndian' version='0.1' type='UnstructuredGrid'>
<UnstructuredGrid>
<Piece NumberOfCells='584' NumberOfPoints='584'>
<Points>
<DataArray NumberOfComponents='3' type='Float32' Name='Position' format='ascii'>
-0.075000 -0.075000 0.000000
-0.075000 -0.050000 0.000000
-0.075000 -0.025000 0.000000
-0.075000 0.000000 0.000000
-0.075000 0.025000 0.000000
-0.075000 0.050000 0.000000
-0.075000 0.075000 0.000000
-0.075000 0.100000 0.000000
-0.075000 0.125000 0.000000
-0.075000 0.150000 0.000000
-0.075000 0.175000 0.000000
-0.075000 0.200000 0.000000
-0.075000 0.225000 0.000000
-0.075000 0.250000 0.000000
-0.075000 0.275000 0.000000
-0.075000 0.300000 0.000000
-0.075000 0.325000 0.000000
-0.075000 0.350000 0.000000
-0.075000 0.375000 0.000000
-0.075000 0.400000 0.000000
-0.075000 0.425000 0.000000
-0.075000 0.450000 0.000000
-0.075000 0.475000 0.000000
-0.075000 0.500000 0.000000
-0.075000 0.525000 0.000000
-0.075000 0.550000 0.000000
-0.075000 0.575000 0.000000
-0.075000 0.600000 0.000000
-0.050000 -0.075000 0.000000
-0.050000 -0.050000 0.000000
-0.050000 -0.025000 0.000000
-0.050000 0.000000 0.000000
-0.050000 0.025000 0.000000
-0.050000 0.050000 0.000000
-0.050000 0.075000 0.000000
-0.050000 0.100000 0.000000
-0.050000 0.125000 0.000000
-0.050000 0.150000 0.000000
-0.050000 0.175000 0.000000
-0.050000 0.200000 0.000000
-0.050000 0.225000 0.000000
-0.050000 0.250000 0.000000
-0.050000 0.275000 0.000000
-0.050000 0.300000 0.000000
-0.050000 0.325000 0.000000
-0.050000 0.350000 0.000000
-0.050000 0.375000 0.000000
-0.050000 0.400000 0.000000
-0.050000 0.425000 0.000000
-0.050000 0.450000 0.000000
-0.050000 0.475000 0.000000
-0.050000 0.500000 0.000000
-0.050000 0.525000 0.000000
-0.050000 0.550000 0.000000
-0.050000 0.575000 0.000000
-0.050000 0.600000 0.000000
-0.025000 -0.075000 0.000000
-0.025000 -0.050000 0.000000
-0.025000 -0.025000 0.000000
-0.025000 0.000000 0.000000
-0.025000 0.025000 0.000000
-0.025000 0.050000 0.000000
-0.025000 0.075000 0.000000
-0.025000 0.100000 0.000000
-0.025000 0.125000 0.000000
-0.025000 0.150000 0.000000
-0.025000 0.175000 0.000000
-0.025000 0.200000 0.000000
-0.025000 0.225000 0.000000
-0.025000 0.250000 0.000000
-0.025000 0.275000 0.000000
-0.025000 0.300000 0.000000
-0.025000 0.325000 0.000000
-0.025000 0.350000 0.000000
-0.025000 0.375000 0.000000
-0.025000 0.400000 0.000000
-0.025000 0.425000 0.000000
-0.025000 0.450000 0.000000
-0.025000 0.475000 0.000000
-0.025000 0.500000 0.000000
-0.025000 0.525000 0.000000
-0.025000 0.550000 0.000000
-0.025000 0.575000 0.000000
-0.025000 0.600000 0.000000
0.000000 -0.075000 0.000000
0.000000 -0.050000 0.000000
0.000000 -0.025000 0.000000
0.000000 0.000000 0.000000
0.000000 0.025000 0.000000
0.000000 0.050000 0.000000
0.000000 0.075000 0.000000
0.000000 0.100000 0.000000
0.000000 0.125000 0.000000
0.000000 0.150000 0.000000
0.000000 0.175000 0.000000
0.000000 0.200000 0.000000
0.000000 0.225000 0.000000
0.000000 0.250000 0.000000
0.000000 0.275000 0.000000
0.000000 0.300000 0.000000
0.000000 0.325000 0.000000
0.000000 0.350000 0.000000
0.000000 0.375000 0.000000
0.000000 0.400000 0.000000
0.000000 0.425000 0.000000
0.000000 0.450000 0.000000
0.000000 0.475000 0.000000
0.000000 0.500000 0.000000
0.000000 0.525000 0.000000
0.000000 0.550000 0.000000
0.000000 0.575000 0.000000
0.000000 0.600000 0.000000
0.025000 -0.075000 0.000000
0.025000 -0.050000 0.000000
0.025000 -0.025000 0.000000
0.025000 0.000000 0.000000
0.275492 0.050211 0.000000
0.259959 0.028622 0.000000
0.240234 0.056938 0.000000
0.193406 0.022928 0.000000
0.360840 0.022935 0.000000
0.071398 0.030659 0.000000
0.441048 0.022315 0.000000
0.285122 0.020910 0.000000
0.224974 0.021878 0.000000
0.158547 0.052707 0.000000
0.299597 0.033986 0.000000
0.200085 0.060545 0.000000
0.172437 0.028768 0.000000
0.032375 0.021035 0.000000
0.042809 0.061581 0.000000
0.035229 0.037200 0.000000
0.115927 0.026919 0.000000
0.098142 0.024785 0.000000
0.123562 0.050903 0.000000
0.147056 0.023055 0.000000
0.050000 -0.075000 0.000000
0.050000 -0.050000 0.000000
0.050000 -0.025000 0.000000
0.050000 0.000000 0.000000
0.353819 0.058636 0.000000
0.432206 0.192590 0.000000
0.433237 0.165696 0.000000
0.161470 0.166016 0.000000
0.251775 0.129975 0.000000
0.618196 0.060565 0.000000
0.375802 0.111433 0.000000
0.726710 0.041453 0.000000
0.375013 0.039877 0.000000
0.399502 0.084253 0.000000
0.256658 0.109726 0.000000
0.423340 0.055494 0.000000
0.067128 0.073887 0.000000
0.417855 0.086898 0.000000
0.262758 0.080792 0.000000
0.234719 0.102155 0.000000
0.211455 0.049724 0.000000
0.333997 0.020465 0.000000
0.137092 0.047137 0.000000
0.186908 0.051898 0.000000
0.075000 -0.075000 0.000000
0.075000 -0.050000 0.000000
0.075000 -0.025000 0.000000
0.075000 0.000000 0.000000
0.381200 0.084036 0.000000
0.360272 0.150753 0.000000
0.533170 0.028573 0.000000
0.481586 0.024688 0.000000
0.755446 0.090455 0.000000
0.802183 0.025387 0.000000
0.808672 0.051052 0.000000
0.025856 0.102586 0.000000
0.731816 0.082920 0.000000
0.785298 0.051967 0.000000
0.596349 0.027721 0.000000
0.417070 0.146618 0.000000
0.289295 0.066931 0.000000
0.370074 0.064702 0.000000
0.397972 0.024321 0.000000
0.324204 0.088355 0.000000
0.331650 0.047265 0.000000
0.227995 0.124667 0.000000
0.277353 0.088647 0.000000
0.241255 0.039162 0.000000
0.100000 -0.075000 0.000000
0.100000 -0.050000 0.000000
0.100000 -0.025000 0.000000
0.100000 0.000000 0.000000
0.636398 0.029799 0.000000
0.574602 0.023857 0.000000
0.667148 0.072864 0.000000
0.895697 0.026118 0.000000
0.398368 0.054407 0.000000
0.871974 0.023758 0.000000
0.831698 0.093517 0.000000
0.501942 0.093795 0.000000
0.829940 0.020792 0.000000
0.830572 0.049182 0.000000
0.617299 0.032140 0.000000
0.618808 0.080305 0.000000
0.774224 0.074843 0.000000
0.756181 0.049136 0.000000
0.458133 0.080540 0.000000
0.417719 0.028173 0.000000
0.680226 0.020884 0.000000
0.652613 0.113570 0.000000
0.540644 0.062591 0.000000
0.451681 0.056567 0.000000
0.125000 -0.075000 0.000000
0.125000 -0.050000 0.000000
0.125000 -0.025000 0.000000
0.125000 0.000000 0.000000
0.854930 0.066722 0.000000
0.913048 0.101852 0.000000
1.003100 0.105654 0.000000
0.918337 0.026262 0.000000
0.870819 0.158706 0.000000
0.757411 0.025267 0.000000
0.581401 0.089767 0.000000
0.790442 0.134006 0.000000
0.924825 0.084025 0.000000
0.873418 0.094524 0.000000
0.949243 0.067759 0.000000
0.745624 0.171932 0.000000
0.656976 0.033217 0.000000
0.703896 0.055718 0.000000
0.509807 0.022205 0.000000
0.742155 0.065112 0.000000
0.691691 0.093529 0.000000
0.338020 0.126826 0.000000
0.672653 0.052112 0.000000
0.291445 0.114888 0.000000
0.150000 -0.075000 0.000000
0.150000 -0.050000 0.000000
0.150000 -0.025000 0.000000
0.150000 0.000000 0.000000
0.546966 0.118836 0.000000
0.998885 0.024261 0.000000
0.914233 0.158319 0.000000
0.524316 0.077850 0.000000
0.963028 0.043048 0.000000
0.302022 0.121805 0.000000
0.986981 0.090317 0.000000
0.657170 0.090478 0.000000
0.999143 0.069579 0.000000
0.931156 0.127678 0.000000
0.934653 0.048435 0.000000
0.850283 0.034889 0.000000
0.898040 0.054116 0.000000
0.912724 0.065153 0.000000
0.876656 0.075422 0.000000
0.783259 0.097742 0.000000
0.778647 0.026666 0.000000
0.801740 0.103037 0.000000
0.799667 0.076492 0.000000
0.590796 0.076301 0.000000
0.175000 -0.075000 0.000000
0.175000 -0.050000 0.000000
0.175000 -0.025000 0.000000
0.175000 0.000000 0.000000
0.215205 0.097278 0.000000
0.883526 0.139293 0.000000
0.966502 0.145971 0.000000
0.987427 0.122023 0.000000
0.960793 0.121680 0.000000
0.388402 0.132843 0.000000
0.941031 0.024786 0.000000
0.513768 0.126972 0.000000
0.524085 0.047055 0.000000
0.972984 0.023564 0.000000
0.811208 0.150305 0.000000
0.911195 0.128259 0.000000
0.722339 0.158383 0.000000
0.961829 0.091935 0.000000
0.972557 0.063033 0.000000
0.586958 0.053260 0.000000
1.000301 0.048118 0.000000
0.712854 0.100705 0.000000
0.562067 0.132035 0.000000
0.743672 0.130738 0.000000
0.200000 -0.075000 0.000000
0.200000 -0.050000 0.000000
0.200000 -0.025000 0.000000
0.200000 0.000000 0.000000
0.636452 0.092258 0.000000
0.322310 0.133807 0.000000
0.534853 0.099853 0.000000
0.929780 0.156513 0.000000
0.493383 0.061608 0.000000
0.669854 0.137380 0.000000
0.767708 0.123652 0.000000
0.950673 0.152525 0.000000
0.717195 0.125721 0.000000
0.363358 0.115137 0.000000
1.000649 0.159144 0.000000
0.872922 0.050224 0.000000
0.070015 0.046958 0.000000
0.645328 0.058575 0.000000
0.842132 0.108889 0.000000
0.419618 0.131375 0.000000
0.874330 0.122867 0.000000
0.617809 0.119125 0.000000
0.945485 0.101855 0.000000
0.830339 0.074466 0.000000
0.225000 -0.075000 0.000000
0.225000 -0.050000 0.000000
0.225000 -0.025000 0.000000
0.225000 0.000000 0.000000
0.562954 0.162554 0.000000
0.932720 0.746474 0.000000
0.837875 0.128078 0.000000
0.306503 0.081123 0.000000
0.328659 0.062319 0.000000
0.018212 0.079654 0.000000
0.742586 0.114130 0.000000
0.991827 0.143972 0.000000
0.840293 0.149409 0.000000
0.465935 0.097595 0.000000
0.898078 0.170901 0.000000
0.308972 0.151341 0.000000
0.486445 0.043894 0.000000
0.701967 0.077389 0.000000
0.346400 0.149549 0.000000
0.550211 0.087757 0.000000
0.697970 0.034764 0.000000
0.130609 0.119546 0.000000
0.477717 0.181745 0.000000
0.501360 0.117239 0.000000
0.250000 -0.075000 0.000000
0.250000 -0.050000 0.000000
0.250000 -0.025000 0.000000
0.250000 0.000000 0.000000
0.924791 0.217185 0.000000
0.671975 0.151815 0.000000
0.606638 0.111617 0.000000
0.580578 0.140225 0.000000
0.438470 0.318094 0.000000
0.690559 0.122654 0.000000
0.524220 0.143819 0.000000
0.485708 0.081567 0.000000
0.458644 0.036942 0.000000
0.808587 0.128402 0.000000
0.430946 0.076375 0.000000
0.106148 0.169414 0.000000
0.437372 0.144043 0.000000
0.724118 0.022151 0.000000
0.565240 0.060745 0.000000
0.473199 0.115405 0.000000
0.556359 0.034274 0.000000
0.891674 0.103280 0.000000
0.135806 0.155898 0.000000
0.855885 0.155899 0.000000
0.275000 -0.075000 0.000000
0.275000 -0.050000 0.000000
0.275000 -0.025000 0.000000
0.275000 0.000000 0.000000
0.300000 -0.075000 0.000000
0.300000 -0.050000 0.000000
0.300000 -0.025000 0.000000
0.300000 0.000000 0.000000
0.325000 -0.075000 0.000000
0.325000 -0.050000 0.000000
0.325000 -0.025000 0.000000
0.325000 0.000000 0.000000
0.350000 -0.075000 0.000000
0.350000 -0.050000 0.000000
0.350000 -0.025000 0.000000
0.350000 0.000000 0.000000
0.375000 -0.075000 0.000000
0.375000 -0.050000 0.000000
0.375000 -0.025000 0.000000
0.375000 0.000000 0.000000
0.400000 -0.075000 0.000000
0.400000 -0.050000 0.000000
0.400000 -0.025000 0.000000
0.400000 0.000000 0.000000
0.425000 -0.075000 0.000000
0.425000 -0.050000 0.000000
0.425000 -0.025000 0.000000
0.425000 0.000000 0.000000
0.450000 -0.075000 0.000000
0.450000 -0.050000 0.000000
0.450000 -0.025000 0.000000
0.450000 0.000000 0.000000
0.475000 -0.075000 0.000000
0.475000 -0.050000 0.000000
0.475000 -0.025000 0.000000
0.475000 0.000000 0.000000
0.500000 -0.075000 0.000000
0.500000 -0.050000 0.000000
0.500000 -0.025000 0.000000
0.500000 0.000000 0.000000
0.525000 -0.075000 0.000000
0.525000 -0.050000 0.000000
0.525000 -0.025000 0.000000
0.525000 0.000000 0.000000
0.550000 -0.075000 0.000000
0.550000 -0.050000 0.000000
0.550000 -0.025000 0.000000
0.550000 0.000000 0.000000
0.575000 -0.075000 0.000000
0.575000 -0.050000 0.000000
0.575000 -0.025000 0.000000
0.575000 0.000000 0.000000
0.600000 -0.075000 0.000000
0.600000 -0.050000 0.000000
0.600000 -0.025000 0.000000
0.600000 0.000000 0.000000
0.625000 -0.075000 0.000000
0.625000 -0.050000 0.000000
0.625000 -0.025000 0.000000
0.625000 0.000000 0.000000
0.650000 -0.075000 0.000000
0.650000 -0.050000 0.000000
0.650000 -0.025000 0.000000
0.650000 0.000000 0.000000
0.675000 -0.075000 0.000000
0.675000 -0.050000 0.000000
0.675000 -0.025000 0.000000
0.675000 0.000000 0.000000
0.700000 -0.075000 0.000000
0.700000 -0.050000 0.000000
0.700000 -0.025000 0.000000
0.700000 0.000000 0.000000
0.725000 -0.075000 0.000000
0.725000 -0.050000 0.000000
0.725000 -0.025000 0.000000
0.725000 0.000000 0.000000
0.750000 -0.075000 0.000000
0.750000 -0.050000 0.000000
0.750000 -0.025000 0.000000
0.750000 0.000000 0.000000
0.775000 -0.075000 0.000000
0.775000 -0.050000 0.000000
0.775000 -0.025000 0.000000
0.775000 0.000000 0.000000
0.800000 -0.075000 0.000000
0.800000 -0.050000 0.000000
0.800000 -0.025000 0.000000
0.800000 0.000000 0.000000
0.825000 -0.075000 0.000000
0.825000 -0.050000 0.000000
0.825000 -0.025000 0.000000
0.825000 0.000000 0.000000
0.850000 -0.075000 0.000000
0.850000 -0.050000 0.000000
0.850000 -0.025000 0.000000
0.850000 0.000000 0.000000
0.875000 -0.075000 0.000000
0.875000 -0.050000 0.000000
0.875000 -0.025000 0.000000
0.875000 0.000000 0.000000
0.900000 -0.075000 0.000000
0.900000 -0.050000 0.000000
0.900000 -0.025000 0.000000
0.900000 0.000000 0.000000
0.925000 -0.075000 0.000000
0.925000 -0.050000 0.000000
0.925000 -0.025000 0.000000
0.925000 0.000000 0.000000
0.950000 -0.075000 0.000000
0.950000 -0.050000 0.000000
0.950000 -0.025000 0.000000
0.950000 0.000000 0.000000
0.975000 -0.075000 0.000000
0.975000 -0.050000 0.000000
0.975000 -0.025000 0.000000
0.975000 0.000000 0.000000
1.000000 -0.075000 0.000000
1.000000 -0.050000 0.000000
1.000000 -0.025000 0.000000
1.000000 0.000000 0.000000
1.025000 -0.075000 0.000000
1.025000 -0.050000 0.000000
1.025000 -0.025000 0.000000
1.025000 0.000000 0.000000
1.025000 0.025000 0.000000
1.025000 0.050000 0.000000
1.025000 0.075000 0.000000
1.025000 0.100000 0.000000
1.025000 0.125000 0.000000
1.025000 0.150000 0.000000
1.025000 0.175000 0.000000
1.025000 0.200000 0.000000
1.025000 0.225000 0.000000
1.025000 0.250000 0.000000
1.025000 0.275000 0.000000
1.025000 0.300000 0.000000
1.025000 0.325000 0.000000
1.025000 0.350000 0.000000
1.025000 0.375000 0.000000
1.025000 0.400000 0.000000
1.025000 0.425000 0.000000
1.025000 0.450000 0.000000
1.025000 0.475000 0.000000
1.025000 0.500000 0.000000
1.025000 0.525000 0.000000
1.025000 0.550000 0.000000
1.025000 0.575000 0.000000
1.025000 0.600000 0.000000
1.050000 -0.075000 0.000000
1.050000 -0.050000 0.000000
1.050000 -0.025000 0.000000
1.050000 0.000000 0.000000
1.050000 0.025000 0.000000
1.050000 0.050000 0.000000
1.050000 0.075000 0.000000
1.050000 0.100000 0.000000
1.050000 0.125000 0.000000
1.050000 0.150000 0.000000
1.050000 0.175000 0.000000
1.050000 0.200000 0.000000
1.050000 0.225000 0.000000
1.050000 0.250000 0.000000
1.050000 0.275000 0.000000
1.050000 0.300000 0.000000
1.050000 0.325000 0.000000
1.050000 0.350000 0.000000
1.050000 0.375000 0.000000
1.050000 0.400000 0.000000
1.050000 0.425000 0.000000
1.050000 0.450000 0.000000
1.050000 0.475000 0.000000
1.050000 0.500000 0.000000
1.050000 0.525000 0.000000
1.050000 0.550000 0.000000
1.050000 0.575000 0.000000
1.050000 0.600000 0.000000
1.075000 -0.075000 0.000000
1.075000 -0.050000 0.000000
1.075000 -0.025000 0.000000
1.075000 0.000000 0.000000
1.075000 0.025000 0.000000
1.075000 0.050000 0.000000
1.075000 0.075000 0.000000
1.075000 0.100000 0.000000
1.075000 0.125000 0.000000
1.075000 0.150000 0.000000
1.075000 0.175000 0.000000
1.075000 0.200000 0.000000
1.075000 0.225000 0.000000
1.075000 0.250000 0.000000
1.075000 0.275000 0.000000
1.075000 0.300000 0.000000
1.075000 0.325000 0.000000
1.075000 0.350000 0.000000
1.075000 0.375000 0.000000
1.075000 0.400000 0.000000
1.075000 0.425000 0.000000
1.075000 0.450000 0.000000
1.075000 0.475000 0.000000
1.075000 0.500000 0.000000
1.075000 0.525000 0.000000
1.075000 0.550000 0.000000
1.075000 0.575000 0.000000
1.075000 0.600000 0.000000
1.100000 -0.075000 0.000000
1.100000 -0.050000 0.000000
1.100000 -0.025000 0.000000
1.100000 0.000000 0.000000
1.100000 0.025000 0.000000
1.100000 0.050000 0.000000
1.100000 0.075000 0.000000
1.100000 0.100000 0.000000
1.100000 0.125000 0.000000
1.100000 0.150000 0.000000
1.100000 0.175000 0.000000
1.100000 0.200000 0.000000
1.100000 0.225000 0.000000
1.100000 0.250000 0.000000
1.100000 0.275000 0.000000
1.100000 0.300000 0.000000
1.100000 0.325000 0.000000
1.100000 0.350000 0.000000
1.100000 0.375000 0.000000
1.100000 0.400000 0.000000
1.100000 0.425000 0.000000
1.100000 0.450000 0.000000
1.100000 0.475000 0.000000
1.100000 0.500000 0.000000
1.100000 0.525000 0.000000
1.100000 0.550000 0.000000
1.100000 0.575000 0.000000
1.100000 0.600000 0.000000
</DataArray>
</Points>
<PointData>
<DataArray NumberOfComponents='1' type='Int32' Name='ParticleType' format='ascii'>
3
3
3
3
3
3
3
3
3
3
3
3
3
3
3
3
3
3
3
3
3
3
3
3
3
3
2
2
3
3
3
3
3
3
3
3
3
3
3
3
3
3
3
3
3
3
3
3
3
3
3
3
3
3
2
2
3
3
2
2
2
2
2
2
2
2
2
2
2
2
2
2
2
2
2
2
2
2
2
2
2
2
2
2
3
3
2
2
2
2
2
2
2
2
2
2
2
2
2
2
2
2
2
2
2
2
2
2
2
2
2
2
3
3
2
2
0
0
0
0
0
0
0
0
0
0
0
0
0
0
0
0
0
0
0
0
3
3
2
2
0
0
0
0
0
0
0
0
0
0
0
0
0
0
0
0
0
0
0
0
3
3
2
2
0
0
0
0
0
0
0
0
0
0
0
0
0
0
0
0
0
0
0
0
3
3
2
2
0
0
0
0
0
0
0
0
0
0
0
0
0
0
0
0
0
0
0
0
3
3
2
2
0
0
0
0
0
0
0
0
0
0
0
0
0
0
0
0
0
0
0
0
3
3
2
2
0
0
0
0
0
0
0
0
0
0
0
0
0
0
0
0
0
0
0
0
3
3
2
2
0
0
0
0
0
0
0
0
0
0
0
0
0
0
0
0
0
0
0
0
3
3
2
2
0
0
0
0
0
0
0
0
0
0
0
0
0
0
0
0
0
0
0
0
3
3
2
2
0
0
0
0
0
0
0
0
0
0
0
0
0
0
0
0
0
0
0
0
3
3
2
2
0
0
0
0
0
0
0
0
0
0
0
0
0
0
0
0
0
0
0
0
3
3
2
2
3
3
2
2
3
3
2
2
3
3
2
2
3
3
2
2
3
3
2
2
3
3
2
2
3
3
2
2
3
3
2
2
3
3
2
2
3
3
2
2
3
3
2
2
3
3
2
2
3
3
2
2
3
3
2
2
3
3
2
2
3
3
2
2
3
3
2
2
3
3
2
2
3
3
2
2
3
3
2
2
3
3
2
2
3
3
2
2
3
3
2
2
3
3
2
2
3
3
2
2
3
3
2
2
3
3
2
2
3
3
2
2
3
3
2
2
3
3
2
2
2
2
2
2
2
2
2
2
2
2
2
2
2
2
2
2
2
2
2
2
2
2
2
2
3
3
2
2
2
2
2
2
2
2
2
2
2
2
2
2
2
2
2
2
2
2
2
2
2
2
2
2
3
3
3
3
3
3
3
3
3
3
3
3
3
3
3
3
3
3
3
3
3
3
3
3
3
3
2
2
3
3
3
3
3
3
3
3
3
3
3
3
3
3
3
3
3
3
3
3
3
3
3
3
3
3
2
2
</DataArray>
<DataArray NumberOfComponents='1' type='Float32' Name='Velocity' format='ascii'>
0.000000
0.000000
0.000000
0.000000
0.000000
0.000000
0.000000
0.000000
0.000000
0.000000
0.000000
0.000000
0.000000
0.000000
0.000000
0.000000
0.000000
0.000000
0.000000
0.000000
0.000000
0.000000
0.000000
0.000000
0.000000
0.000000
0.000000
0.000000
0.000000
0.000000
0.000000
0.000000
0.000000
0.000000
0.000000
0.000000
0.000000
0.000000
0.000000
0.000000
0.000000
0.000000
0.000000
0.000000
0.000000
0.000000
0.000000
0.000000
0.000000
0.000000
0.000000
0.000000
0.000000
0.000000
0.000000
0.000000
0.000000
0.000000
0.000000
0.000000
0.000000
0.000000
0.000000
0.000000
0.000000
0.000000
0.000000
0.000000
0.000000
0.000000
0.000000
0.000000
0.000000
0.000000
0.000000
0.000000
0.000000
0.000000
0.000000
0.000000
0.000000
0.000000
0.000000
0.000000
0.000000
0.000000
0.000000
0.000000
0.000000
0.000000
0.000000
0.000000
0.000000
0.000000
0.000000
0.000000
0.000000
0.000000
0.000000
0.000000
0.000000
0.000000
0.000000
0.000000
0.000000
0.000000
0.000000
0.000000
0.000000
0.000000
0.000000
0.000000
0.000000
0.000000
0.000000
0.000000
0.583820
0.163344
0.626604
0.069907
0.377482
0.603343
0.331402
0.381851
0.180328
0.461332
0.355261
0.366253
0.187704
0.541173
1.157869
0.689516
0.312117
0.374087
0.545576
0.309133
0.000000
0.000000
0.000000
0.000000
0.587173
1.631442
1.175972
2.377760
2.044850
0.292536
1.274145
0.399031
0.560784
0.704913
1.621034
0.332206
0.608183
0.939460
1.339237
1.574239
0.241007
0.266309
0.241565
0.205405
0.000000
0.000000
0.000000
0.000000
0.697760
1.591838
0.441703
0.571281
0.685770
0.390785
0.389693
2.207680
0.892828
0.316796
0.559472
1.285333
0.829741
0.453180
0.655642
1.619910
0.635676
2.049113
1.401251
0.422804
0.000000
0.000000
0.000000
0.000000
0.553734
0.575867
1.014549
0.235838
0.390876
0.289898
0.383680
1.858435
0.415164
0.367288
0.636565
0.796300
0.751678
0.509521
0.655530
0.731280
0.438094
1.040340
0.859763
1.097359
0.000000
0.000000
0.000000
0.000000
0.553648
0.235723
0.088606
0.248854
0.581615
0.261924
0.748063
0.902418
0.205655
0.482450
0.181453
0.660129
0.408984
0.610803
0.245681
0.575759
0.993891
1.387084
0.272066
1.776002
0.000000
0.000000
0.000000
0.000000
1.575703
0.353037
0.956060
1.182892
0.346821
1.758874
0.335507
0.851602
0.365780
0.291847
0.439647
0.313961
0.611572
0.241431
0.444299
0.510296
0.504849
0.677237
0.431937
1.034246
0.000000
0.000000
0.000000
0.000000
1.872763
0.853138
0.417674
0.352457
0.428824
1.259020
0.212025
2.524882
0.685699
0.335223
0.517964
0.526132
0.777929
0.211007
0.144391
0.432192
0.193019
0.860471
1.935225
0.680577
0.000000
0.000000
0.000000
0.000000
0.826348
1.832687
1.055075
0.619390
0.547868
1.226086
0.681357
1.274911
1.140766
1.175303
0.467779
0.721701
0.497100
1.056127
0.129707
1.573827
0.628244
1.125752
0.339046
0.501919
0.000000
0.000000
0.000000
0.000000
1.382087
3.297441
0.967346
0.347272
0.496151
2.275817
1.126179
0.475837
0.777024
1.319582
0.668752
1.462960
0.561797
0.802275
1.497291
0.933566
0.193900
2.894322
0.791075
1.378571
0.000000
0.000000
0.000000
0.000000
4.030966
4.016363
1.250667
1.456781
3.928927
1.116491
0.705965
0.960879
0.538854
1.143112
0.917372
2.697257
1.879803
0.480013
0.471232
1.132735
0.511390
0.423718
2.436914
0.979695
0.000000
0.000000
0.000000
0.000000
0.000000
0.000000
0.000000
0.000000
0.000000
0.000000
0.000000
0.000000
0.000000
0.000000
0.000000
0.000000
0.000000
0.000000
0.000000
0.000000
0.000000
0.000000
0.000000
0.000000
0.000000
0.000000
0.000000
0.000000
0.000000
0.000000
0.000000
0.000000
0.000000
0.000000
0.000000
0.000000
0.000000
0.000000
0.000000
0.000000
0.000000
0.000000
0.000000
0.000000
0.000000
0.000000
0.000000
0.000000
0.000000
0.000000
0.000000
0.000000
0.000000
0.000000
0.000000
0.000000
0.000000
0.000000
0.000000
0.000000
0.000000
0.000000
0.000000
0.000000
0.000000
0.000000
0.000000
0.000000
0.000000
0.000000
0.000000
0.000000
0.000000
0.000000
0.000000
0.000000
0.000000
0.000000
0.000000
0.000000
0.000000
0.000000
0.000000
0.000000
0.000000
0.000000
0.000000
0.000000
0.000000
0.000000
0.000000
0.000000
0.000000
0.000000
0.000000
0.000000
0.000000
0.000000
0.000000
0.000000
0.000000
0.000000
0.000000
0.000000
0.000000
0.000000
0.000000
0.000000
0.000000
0.000000
0.000000
0.000000
0.000000
0.000000
0.000000
0.000000
0.000000
0.000000
0.000000
0.000000
0.000000
0.000000
0.000000
0.000000
0.000000
0.000000
0.000000
0.000000
0.000000
0.000000
0.000000
0.000000
0.000000
0.000000
0.000000
0.000000
0.000000
0.000000
0.000000
0.000000
0.000000
0.000000
0.000000
0.000000
0.000000
0.000000
0.000000
0.000000
0.000000
0.000000
0.000000
0.000000
0.000000
0.000000
0.000000
0.000000
0.000000
0.000000
0.000000
0.000000
0.000000
0.000000
0.000000
0.000000
0.000000
0.000000
0.000000
0.000000
0.000000
0.000000
0.000000
0.000000
0.000000
0.000000
0.000000
0.000000
0.000000
0.000000
0.000000
0.000000
0.000000
0.000000
0.000000
0.000000
0.000000
0.000000
0.000000
0.000000
0.000000
0.000000
0.000000
0.000000
0.000000
0.000000
0.000000
0.000000
0.000000
0.000000
0.000000
0.000000
0.000000
0.000000
0.000000
0.000000
0.000000
0.000000
0.000000
0.000000
0.000000
0.000000
0.000000
0.000000
0.000000
0.000000
0.000000
0.000000
0.000000
0.000000
0.000000
0.000000
0.000000
0.000000
0.000000
0.000000
0.000000
0.000000
0.000000
0.000000
0.000000
0.000000
0.000000
0.000000
</DataArray>
<DataArray NumberOfComponents='1' type='Float32' Name='pressure' format='ascii'>
0.000000
0.000000
0.000000
0.000000
0.000000
0.000000
0.000000
0.000000
0.000000
0.000000
0.000000
0.000000
0.000000
0.000000
0.000000
0.000000
0.000000
0.000000
0.000000
0.000000
0.000000
0.000000
0.000000
0.000000
0.000000
0.000000
0.000000
0.000000
0.000000
0.000000
0.000000
0.000000
0.000000
0.000000
0.000000
0.000000
0.000000
0.000000
0.000000
0.000000
0.000000
0.000000
0.000000
0.000000
0.000000
0.000000
0.000000
0.000000
0.000000
0.000000
0.000000
0.000000
0.000000
0.000000
0.000000
0.000000
0.000000
0.000000
196.334427
32.807953
0.000000
223.811508
3928.081543
2199.902832
0.000000
0.000000
0.000000
0.000000
0.000000
0.000000
0.000000
0.000000
0.000000
0.000000
0.000000
0.000000
0.000000
0.000000
0.000000
0.000000
0.000000
0.000000
0.000000
0.000000
0.000000
0.000000
459.224030
0.000000
0.000000
0.000000
4079.624756
0.000000
0.000000
0.000000
0.000000
0.000000
0.000000
0.000000
0.000000
0.000000
0.000000
0.000000
0.000000
0.000000
0.000000
0.000000
0.000000
0.000000
0.000000
0.000000
0.000000
0.000000
0.000000
0.000000
1832.600098
1564.348633
0.000000
0.000000
0.000000
1860.812500
0.000000
0.000000
1497.007202
2035.317993
0.000000
0.000000
0.000000
0.000000
623.683167
1803.724854
0.000000
0.000000
0.000000
0.000000
0.000000
0.000000
0.000000
0.000000
554.916138
0.000000
205.867340
0.000000
0.000000
0.000000
0.000000
0.000000
0.000000
0.000000
0.000000
1451.224976
0.000000
915.929565
0.000000
0.000000
0.000000
0.000000
494.570618
0.000000
990.798279
0.000000
0.000000
0.000000
0.000000
0.000000
0.000000
0.000000
985.887329
3095.603271
0.000000
1015.070007
1703.954590
0.000000
799.409363
1351.802856
1175.562988
0.000000
0.000000
1329.271606
0.000000
0.000000
283.502319
0.000000
1504.730225
2063.524414
0.000000
0.000000
0.000000
0.000000
1314.915405
1996.270630
1022.584167
1719.682983
0.000000
1754.084961
1421.902588
2166.823975
1147.736572
2191.720703
1258.726196
1240.413696
1578.306763
0.000000
0.000000
1443.961548
1164.289429
0.000000
2007.823608
119.651634
0.000000
0.000000
0.000000
0.000000
0.000000
27.797037
28.508121
1270.899414
0.000000
1352.126221
0.000000
0.000000
0.000000
238.356277
0.000000
0.000000
1298.312134
80.000999
1224.508545
946.652588
0.000000
0.000000
0.000000
0.000000
0.000000
0.000000
0.000000
0.000000
0.000000
381.216797
0.000000
76.706627
1713.076416
0.000000
0.000000
0.000000
500.405396
831.572388
254.796387
2077.389160
498.957764
821.934937
800.178833
657.352844
2372.314941
856.554749
0.000000
208.761337
0.000000
0.000000
0.000000
0.000000
0.000000
0.000000
0.000000
0.000000
0.000000
0.000000
1167.453003
0.000000
0.000000
0.000000
0.000000
0.000000
0.000000
933.605408
0.000000
0.000000
932.110779
0.000000
0.000000
0.000000
0.000000
0.000000
1210.460205
726.587280
0.000000
0.000000
1504.660767
0.000000
1514.065674
0.000000
0.000000
0.000000
0.000000
0.000000
0.000000
1358.852661
0.000000
0.000000
0.000000
0.000000
0.000000
0.000000
45.680611
333.395905
0.000000
0.000000
2075.551514
1297.333740
0.000000
0.000000
487.576935
0.000000
0.000000
0.000000
0.000000
0.000000
0.000000
0.000000
0.000000
0.000000
3321.175293
2788.471436
0.000000
0.000000
1065.771118
0.000000
0.000000
0.000000
0.000000
0.000000
412.586212
0.000000
0.000000
0.000000
0.000000
0.000000
0.000000
0.000000
0.000000
4695.271484
1152.698853
0.000000
1907.422363
0.000000
0.000000
1554.586060
0.000000
0.000000
528.230103
852.138489
0.000000
463.039337
0.000000
0.000000
2376.390381
1916.606567
0.000000
0.000000
2188.311279
0.000000
0.000000
0.000000
3051.978760
761.975891
0.000000
0.000000
3360.185547
2335.786621
0.000000
0.000000
1415.703491
0.000000
0.000000
0.000000
1632.357178
1087.285889
0.000000
0.000000
1763.059692
2493.016846
0.000000
0.000000
2514.649414
1609.456543
0.000000
0.000000
1805.907104
1335.134888
0.000000
0.000000
2077.793213
2470.869873
0.000000
0.000000
842.809326
0.000000
0.000000
0.000000
0.000000
0.000000
0.000000
0.000000
0.000000
0.000000
0.000000
0.000000
0.000000
0.000000
0.000000
0.000000
0.000000
0.000000
0.000000
0.000000
0.000000
0.000000
0.000000
0.000000
2109.256348
1357.854248
0.000000
0.000000
1091.707642
0.000000
0.000000
0.000000
2019.926636
1462.162842
0.000000
0.000000
665.362366
8.635987
0.000000
0.000000
520.366211
533.944641
0.000000
0.000000
1396.640259
1423.559570
0.000000
0.000000
3215.247314
3387.841797
0.000000
0.000000
1672.277588
0.000000
0.000000
0.000000
1746.284180
1533.201782
0.000000
0.000000
695.786743
1497.208862
0.000000
0.000000
407.457825
919.058411
0.000000
0.000000
673.347595
207.772919
0.000000
0.000000
1520.894897
1590.280884
0.000000
0.000000
1377.270996
1864.253418
0.000000
0.000000
988.061096
704.025391
171.239975
1181.798828
368.262115
1091.410889
0.000000
0.000000
0.000000
0.000000
0.000000
0.000000
0.000000
0.000000
0.000000
0.000000
0.000000
0.000000
0.000000
0.000000
0.000000
0.000000
0.000000
0.000000
0.000000
0.000000
0.000000
0.000000
834.664856
708.645020
260.468994
704.484863
302.343903
1468.092896
0.000000
0.000000
0.000000
0.000000
0.000000
0.000000
0.000000
0.000000
0.000000
0.000000
0.000000
0.000000
0.000000
0.000000
0.000000
0.000000
0.000000
0.000000
0.000000
0.000000
0.000000
0.000000
0.000000
0.000000
0.000000
0.000000
0.000000
0.000000
0.000000
0.000000
0.000000
0.000000
0.000000
0.000000
0.000000
0.000000
0.000000
0.000000
0.000000
0.000000
0.000000
0.000000
0.000000
0.000000
0.000000
0.000000
0.000000
0.000000
0.000000
0.000000
0.000000
0.000000
0.000000
0.000000
0.000000
0.000000
0.000000
0.000000
0.000000
0.000000
0.000000
0.000000
0.000000
0.000000
0.000000
0.000000
0.000000
0.000000
0.000000
0.000000
0.000000
0.000000
0.000000
0.000000
0.000000
0.000000
</DataArray>
</PointData>
<Cells>
<DataArray type='Int32' Name='connectivity' format='ascii'>
0
1
2
3
4
5
6
7
8
9
10
11
12
13
14
15
16
17
18
19
20
21
22
23
24
25
26
27
28
29
30
31
32
33
34
35
36
37
38
39
40
41
42
43
44
45
46
47
48
49
50
51
52
53
54
55
56
57
58
59
60
61
62
63
64
65
66
67
68
69
70
71
72
73
74
75
76
77
78
79
80
81
82
83
84
85
86
87
88
89
90
91
92
93
94
95
96
97
98
99
100
101
102
103
104
105
106
107
108
109
110
111
112
113
114
115
116
117
118
119
120
121
122
123
124
125
126
127
128
129
130
131
132
133
134
135
136
137
138
139
140
141
142
143
144
145
146
147
148
149
150
151
152
153
154
155
156
157
158
159
160
161
162
163
164
165
166
167
168
169
170
171
172
173
174
175
176
177
178
179
180
181
182
183
184
185
186
187
188
189
190
191
192
193
194
195
196
197
198
199
200
201
202
203
204
205
206
207
208
209
210
211
212
213
214
215
216
217
218
219
220
221
222
223
224
225
226
227
228
229
230
231
232
233
234
235
236
237
238
239
240
241
242
243
244
245
246
247
248
249
250
251
252
253
254
255
256
257
258
259
260
261
262
263
264
265
266
267
268
269
270
271
272
273
274
275
276
277
278
279
280
281
282
283
284
285
286
287
288
289
290
291
292
293
294
295
296
297
298
299
300
301
302
303
304
305
306
307
308
309
310
311
312
313
314
315
316
317
318
319
320
321
322
323
324
325
326
327
328
329
330
331
332
333
334
335
336
337
338
339
340