<?xml version='1.0' encoding='UTF-8'?>
<VTKFile xmlns='VTK' byte_order='LittleEndian' version='0.1' type='UnstructuredGrid'>
<UnstructuredGrid>
<Piece NumberOfCells='584' NumberOfPoints='584'>
<Points>
<DataArray NumberOfComponents='3' type='Float32' Name='Position' format='ascii'>
-0.075000 -0.075000 0.000000
-0.075000 -0.050000 0.000000
-0.075000 -0.025000 0.000000
-0.075000 0.000000 0.000000
-0.075000 0.025000 0.000000
-0.075000 0.050000 0.000000
-0.075000 0.075000 0.000000
-0.075000 0.100000 0.000000
-0.075000 0.125000 0.000000
-0.075000 0.150000 0.000000
-0.075000 0.175000 0.000000
-0.075000 0.200000 0.000000
-0.075000 0.225000 0.000000
-0.075000 0.250000 0.000000
-0.075000 0.275000 0.000000
-0.075000 0.300000 0.000000
-0.075000 0.325000 0.000000
-0.075000 0.350000 0.000000
-0.075000 0.375000 0.000000
-0.075000 0.400000 0.000000
-0.075000 0.425000 0.000000
-0.075000 0.450000 0.000000
-0.075000 0.475000 0.000000
-0.075000 0.500000 0.000000
-0.075000 0.525000 0.000000
-0.075000 0.550000 0.000000
-0.075000 0.575000 0.000000
-0.075000 0.600000 0.000000
-0.050000 -0.075000 0.000000
-0.050000 -0.050000 0.000000
-0.050000 -0.025000 0.000000
-0.050000 0.000000 0.000000
-0.050000 0.025000 0.000000
-0.050000 0.050000 0.000000
-0.050000 0.075000 0.000000
-0.050000 0.100000 0.000000
-0.050000 0.125000 0.000000
-0.050000 0.150000 0.000000
-0.050000 0.175000 0.000000
-0.050000 0.200000 0.000000
-0.050000 0.225000 0.000000
-0.050000 0.250000 0.000000
-0.050000 0.275000 0.000000
-0.050000 0.300000 0.000000
-0.050000 0.325000 0.000000
-0.050000 0.350000 0.000000
-0.050000 0.375000 0.000000
-0.050000 0.400000 0.000000
-0.050000 0.425000 0.000000
-0.050000 0.450000 0.000000
-0.050000 0.475000 0.000000
-0.050000 0.500000 0.000000
-0.050000 0.525000 0.000000
-0.050000 0.550000 0.000000
-0.050000 0.575000 0.000000
-0.050000 0.600000 0.000000
-0.025000 -0.075000 0.000000
-0.025000 -0.050000 0.000000
-0.025000 -0.025000 0.000000
-0.025000 0.000000 0.000000
-0.025000 0.025000 0.000000
-0.025000 0.050000 0.000000
-0.025000 0.075000 0.000000
-0.025000 0.100000 0.000000
-0.025000 0.125000 0.000000
-0.025000 0.150000 0.000000
-0.025000 0.175000 0.000000
-0.025000 0.200000 0.000000
-0.025000 0.225000 0.000000
-0.025000 0.250000 0.000000
-0.025000 0.275000 0.000000
-0.025000 0.300000 0.000000
-0.025000 0.325000 0.000000
-0.025000 0.350000 0.000000
-0.025000 0.375000 0.000000
-0.025000 0.400000 0.000000
-0.025000 0.425000 0.000000
-0.025000 0.450000 0.000000
-0.025000 0.475000 0.000000
-0.025000 0.500000 0.000000
-0.025000 0.525000 0.000000
-0.025000 0.550000 0.000000
-0.025000 0.575000 0.000000
-0.025000 0.600000 0.000000
0.000000 -0.075000 0.000000
0.000000 -0.050000 0.000000
0.000000 -0.025000 0.000000
0.000000 0.000000 0.000000
0.000000 0.025000 0.000000
0.000000 0.050000 0.000000
0.000000 0.075000 0.000000
0.000000 0.100000 0.000000
0.000000 0.125000 0.000000
0.000000 0.150000 0.000000
0.000000 0.175000 0.000000
0.000000 0.200000 0.000000
0.000000 0.225000 0.000000
0.000000 0.250000 0.000000
0.000000 0.275000 0.000000
0.000000 0.300000 0.000000
0.000000 0.325000 0.000000
0.000000 0.350000 0.000000
0.000000 0.375000 0.000000
0.000000 0.400000 0.000000
0.000000 0.425000 0.000000
0.000000 0.450000 0.000000
0.000000 0.475000 0.000000
0.000000 0.500000 0.000000
0.000000 0.525000 0.000000
0.000000 0.550000 0.000000
0.000000 0.575000 0.000000
0.000000 0.600000 0.000000
0.025000 -0.075000 0.000000
0.025000 -0.050000 0.000000
0.025000 -0.025000 0.000000
0.025000 0.000000 0.000000
0.043435 0.021799 0.000000
0.023254 0.032349 0.000000
0.059487 0.041794 0.000000
0.027584 0.054076 0.000000
0.065151 0.067228 0.000000
0.028191 0.073317 0.000000
0.062399 0.086083 0.000000
0.027553 0.094663 0.000000
0.049055 0.108774 0.000000
0.023687 0.117284 0.000000
0.040853 0.137625 0.000000
0.021036 0.154128 0.000000
0.030747 0.176266 0.000000
0.026763 0.199207 0.000000
0.026319 0.220696 0.000000
0.025479 0.243015 0.000000
0.028711 0.265588 0.000000
0.023543 0.286358 0.000000
0.028781 0.311710 0.000000
0.025902 0.328970 0.000000
0.050000 -0.075000 0.000000
0.050000 -0.050000 0.000000
0.050000 -0.025000 0.000000
0.050000 0.000000 0.000000
0.103902 0.030575 0.000000
0.079646 0.021715 0.000000
0.080065 0.046626 0.000000
0.132356 0.074577 0.000000
0.092477 0.070892 0.000000
0.101374 0.093903 0.000000
0.079075 0.104722 0.000000
0.104416 0.115878 0.000000
0.066922 0.124508 0.000000
0.085470 0.145758 0.000000
0.056327 0.150252 0.000000
0.077109 0.169981 0.000000
0.051928 0.179968 0.000000
0.069065 0.194653 0.000000
0.055067 0.212794 0.000000
0.061543 0.231103 0.000000
0.054648 0.252645 0.000000
0.060591 0.271523 0.000000
0.053145 0.296074 0.000000
0.058783 0.318415 0.000000
0.075000 -0.075000 0.000000
0.075000 -0.050000 0.000000
0.075000 -0.025000 0.000000
0.075000 0.000000 0.000000
0.122605 0.025197 0.000000
0.111610 0.060914 0.000000
0.157019 0.020535 0.000000
0.131747 0.049354 0.000000
0.157890 0.065003 0.000000
0.149397 0.091416 0.000000
0.170346 0.102791 0.000000
0.127732 0.102466 0.000000
0.144971 0.118909 0.000000
0.106263 0.135891 0.000000
0.127934 0.157572 0.000000
0.100743 0.165147 0.000000
0.102129 0.186389 0.000000
0.099274 0.204952 0.000000
0.092586 0.223872 0.000000
0.088107 0.243776 0.000000
0.092651 0.263255 0.000000
0.082982 0.283989 0.000000
0.086702 0.307006 0.000000
0.072874 0.318210 0.000000
0.100000 -0.075000 0.000000
0.100000 -0.050000 0.000000
0.100000 -0.025000 0.000000
0.100000 0.000000 0.000000
0.210622 0.021399 0.000000
0.188142 0.028878 0.000000
0.180824 0.050609 0.000000
0.201538 0.061619 0.000000
0.157323 0.041606 0.000000
0.224706 0.079148 0.000000
0.183778 0.080332 0.000000
0.197357 0.096631 0.000000
0.167546 0.127763 0.000000
0.188529 0.137775 0.000000
0.139323 0.141390 0.000000
0.166650 0.155815 0.000000
0.144653 0.169696 0.000000
0.143287 0.191608 0.000000
0.132899 0.206677 0.000000
0.124530 0.226209 0.000000
0.127592 0.246246 0.000000
0.118660 0.266720 0.000000
0.115618 0.290127 0.000000
0.112564 0.313464 0.000000
0.125000 -0.075000 0.000000
0.125000 -0.050000 0.000000
0.125000 -0.025000 0.000000
0.125000 0.000000 0.000000
0.256417 0.025152 0.000000
0.233862 0.029490 0.000000
0.282276 0.023477 0.000000
0.263490 0.047845 0.000000
0.285711 0.051020 0.000000
0.219424 0.051817 0.000000
0.241873 0.060862 0.000000
0.242710 0.095924 0.000000
0.220719 0.106392 0.000000
0.204077 0.120524 0.000000
0.220588 0.141788 0.000000
0.195947 0.159281 0.000000
0.182864 0.176090 0.000000
0.171624 0.192238 0.000000
0.174236 0.214398 0.000000
0.156272 0.226752 0.000000
0.163251 0.248335 0.000000
0.146569 0.261877 0.000000
0.149942 0.289469 0.000000
0.134565 0.298928 0.000000
0.150000 -0.075000 0.000000
0.150000 -0.050000 0.000000
0.150000 -0.025000 0.000000
0.150000 0.000000 0.000000
0.355279 0.021808 0.000000
0.317441 0.022222 0.000000
0.334013 0.038974 0.000000
0.304100 0.040534 0.000000
0.319383 0.065528 0.000000
0.349873 0.054995 0.000000
0.283169 0.080781 0.000000
0.313564 0.082693 0.000000
0.262771 0.077199 0.000000
0.281216 0.103615 0.000000
0.258838 0.111591 0.000000
0.245224 0.129480 0.000000
0.242023 0.150579 0.000000
0.227357 0.167318 0.000000
0.219080 0.185650 0.000000
0.210976 0.204439 0.000000
0.195121 0.220006 0.000000
0.193061 0.245909 0.000000
0.183525 0.266471 0.000000
0.168440 0.290500 0.000000
0.175000 -0.075000 0.000000
0.175000 -0.050000 0.000000
0.175000 -0.025000 0.000000
0.175000 0.000000 0.000000
0.431478 0.026739 0.000000
0.386867 0.025498 0.000000
0.423835 0.052677 0.000000
0.409924 0.025430 0.000000
0.403508 0.054818 0.000000
0.371311 0.042956 0.000000
0.379693 0.063664 0.000000
0.375452 0.087569 0.000000
0.342949 0.076198 0.000000
0.356012 0.094482 0.000000
0.303244 0.101916 0.000000
0.308119 0.125357 0.000000
0.280176 0.134955 0.000000
0.274058 0.152865 0.000000
0.264014 0.172444 0.000000
0.247646 0.192258 0.000000
0.238135 0.211435 0.000000
0.220010 0.231226 0.000000
0.215657 0.261151 0.000000
0.198475 0.277717 0.000000
0.200000 -0.075000 0.000000
0.200000 -0.050000 0.000000
0.200000 -0.025000 0.000000
0.200000 0.000000 0.000000
0.624249 0.036406 0.000000
0.494849 0.022622 0.000000
0.549474 0.020309 0.000000
0.459934 0.021629 0.000000
0.533807 0.031518 0.000000
0.512506 0.038351 0.000000
0.466837 0.039987 0.000000
0.445366 0.059533 0.000000
0.416113 0.081198 0.000000
0.400063 0.095434 0.000000
0.384616 0.116099 0.000000
0.344383 0.111656 0.000000
0.349021 0.130058 0.000000
0.324650 0.134456 0.000000
0.307460 0.149237 0.000000
0.304604 0.171630 0.000000
0.283145 0.182757 0.000000
0.271955 0.208139 0.000000
0.255375 0.231668 0.000000
0.231907 0.257586 0.000000
0.225000 -0.075000 0.000000
0.225000 -0.050000 0.000000
0.225000 -0.025000 0.000000
0.225000 0.000000 0.000000
0.645939 0.023482 0.000000
0.666186 0.051528 0.000000
0.605272 0.023022 0.000000
0.588426 0.056183 0.000000
0.586462 0.028588 0.000000
0.576193 0.071600 0.000000
0.564853 0.046007 0.000000
0.528099 0.057592 0.000000
0.487077 0.046802 0.000000
0.496983 0.068557 0.000000
0.465041 0.077030 0.000000
0.443376 0.084103 0.000000
0.427668 0.100187 0.000000
0.407577 0.124718 0.000000
0.378948 0.137232 0.000000
0.355016 0.154756 0.000000
0.335514 0.173634 0.000000
0.307273 0.197246 0.000000
0.287595 0.219353 0.000000
0.249293 0.244049 0.000000
0.250000 -0.075000 0.000000
0.250000 -0.050000 0.000000
0.250000 -0.025000 0.000000
0.250000 0.000000 0.000000
0.732876 0.029454 0.000000
0.713504 0.022944 0.000000
0.668628 0.023426 0.000000
0.700106 0.035818 0.000000
0.690897 0.048492 0.000000
0.647795 0.053640 0.000000
0.633967 0.071810 0.000000
0.622355 0.060772 0.000000
0.583596 0.095186 0.000000
0.559046 0.064752 0.000000
0.532622 0.083151 0.000000
0.517182 0.081510 0.000000
0.495454 0.089678 0.000000
0.469966 0.098162 0.000000
0.444955 0.122917 0.000000
0.421191 0.133803 0.000000
0.389189 0.154222 0.000000
0.367870 0.165700 0.000000
0.331865 0.186133 0.000000
0.305171 0.215161 0.000000
0.275000 -0.075000 0.000000
0.275000 -0.050000 0.000000
0.275000 -0.025000 0.000000
0.275000 0.000000 0.000000
0.300000 -0.075000 0.000000
0.300000 -0.050000 0.000000
0.300000 -0.025000 0.000000
0.300000 0.000000 0.000000
0.325000 -0.075000 0.000000
0.325000 -0.050000 0.000000
0.325000 -0.025000 0.000000
0.325000 0.000000 0.000000
0.350000 -0.075000 0.000000
0.350000 -0.050000 0.000000
0.350000 -0.025000 0.000000
0.350000 0.000000 0.000000
0.375000 -0.075000 0.000000
0.375000 -0.050000 0.000000
0.375000 -0.025000 0.000000
0.375000 0.000000 0.000000
0.400000 -0.075000 0.000000
0.400000 -0.050000 0.000000
0.400000 -0.025000 0.000000
0.400000 0.000000 0.000000
0.425000 -0.075000 0.000000
0.425000 -0.050000 0.000000
0.425000 -0.025000 0.000000
0.425000 0.000000 0.000000
0.450000 -0.075000 0.000000
0.450000 -0.050000 0.000000
0.450000 -0.025000 0.000000
0.450000 0.000000 0.000000
0.475000 -0.075000 0.000000
0.475000 -0.050000 0.000000
0.475000 -0.025000 0.000000
0.475000 0.000000 0.000000
0.500000 -0.075000 0.000000
0.500000 -0.050000 0.000000
0.500000 -0.025000 0.000000
0.500000 0.000000 0.000000
0.525000 -0.075000 0.000000
0.525000 -0.050000 0.000000
0.525000 -0.025000 0.000000
0.525000 0.000000 0.000000
0.550000 -0.075000 0.000000
0.550000 -0.050000 0.000000
0.550000 -0.025000 0.000000
0.550000 0.000000 0.000000
0.575000 -0.075000 0.000000
0.575000 -0.050000 0.000000
0.575000 -0.025000 0.000000
0.575000 0.000000 0.000000
0.600000 -0.075000 0.000000
0.600000 -0.050000 0.000000
0.600000 -0.025000 0.000000
0.600000 0.000000 0.000000
0.625000 -0.075000 0.000000
0.625000 -0.050000 0.000000
0.625000 -0.025000 0.000000
0.625000 0.000000 0.000000
0.650000 -0.075000 0.000000
0.650000 -0.050000 0.000000
0.650000 -0.025000 0.000000
0.650000 0.000000 0.000000
0.675000 -0.075000 0.000000
0.675000 -0.050000 0.000000
0.675000 -0.025000 0.000000
0.675000 0.000000 0.000000
0.700000 -0.075000 0.000000
0.700000 -0.050000 0.000000
0.700000 -0.025000 0.000000
0.700000 0.000000 0.000000
0.725000 -0.075000 0.000000
0.725000 -0.050000 0.000000
0.725000 -0.025000 0.000000
0.725000 0.000000 0.000000
0.750000 -0.075000 0.000000
0.750000 -0.050000 0.000000
0.750000 -0.025000 0.000000
0.750000 0.000000 0.000000
0.775000 -0.075000 0.000000
0.775000 -0.050000 0.000000
0.775000 -0.025000 0.000000
0.775000 0.000000 0.000000
0.800000 -0.075000 0.000000
0.800000 -0.050000 0.000000
0.800000 -0.025000 0.000000
0.800000 0.000000 0.000000
0.825000 -0.075000 0.000000
0.825000 -0.050000 0.000000
0.825000 -0.025000 0.000000
0.825000 0.000000 0.000000
0.850000 -0.075000 0.000000
0.850000 -0.050000 0.000000
0.850000 -0.025000 0.000000
0.850000 0.000000 0.000000
0.875000 -0.075000 0.000000
0.875000 -0.050000 0.000000
0.875000 -0.025000 0.000000
0.875000 0.000000 0.000000
0.900000 -0.075000 0.000000
0.900000 -0.050000 0.000000
0.900000 -0.025000 0.000000
0.900000 0.000000 0.000000
0.925000 -0.075000 0.000000
0.925000 -0.050000 0.000000
0.925000 -0.025000 0.000000
0.925000 0.000000 0.000000
0.950000 -0.075000 0.000000
0.950000 -0.050000 0.000000
0.950000 -0.025000 0.000000
0.950000 0.000000 0.000000
0.975000 -0.075000 0.000000
0.975000 -0.050000 0.000000
0.975000 -0.025000 0.000000
0.975000 0.000000 0.000000
1.000000 -0.075000 0.000000
1.000000 -0.050000 0.000000
1.000000 -0.025000 0.000000
1.000000 0.000000 0.000000
1.025000 -0.075000 0.000000
1.025000 -0.050000 0.000000
1.025000 -0.025000 0.000000
1.025000 0.000000 0.000000
1.025000 0.025000 0.000000
1.025000 0.050000 0.000000
1.025000 0.075000 0.000000
1.025000 0.100000 0.000000
1.025000 0.125000 0.000000
1.025000 0.150000 0.000000
1.025000 0.175000 0.000000
1.025000 0.200000 0.000000
1.025000 0.225000 0.000000
1.025000 0.250000 0.000000
1.025000 0.275000 0.000000
1.025000 0.300000 0.000000
1.025000 0.325000 0.000000
1.025000 0.350000 0.000000
1.025000 0.375000 0.000000
1.025000 0.400000 0.000000
1.025000 0.425000 0.000000
1.025000 0.450000 0.000000
1.025000 0.475000 0.000000
1.025000 0.500000 0.000000
1.025000 0.525000 0.000000
1.025000 0.550000 0.000000
1.025000 0.575000 0.000000
1.025000 0.600000 0.000000
1.050000 -0.075000 0.000000
1.050000 -0.050000 0.000000
1.050000 -0.025000 0.000000
1.050000 0.000000 0.000000
1.050000 0.025000 0.000000
1.050000 0.050000 0.000000
1.050000 0.075000 0.000000
1.050000 0.100000 0.000000
1.050000 0.125000 0.000000
1.050000 0.150000 0.000000
1.050000 0.175000 0.000000
1.050000 0.200000 0.000000
1.050000 0.225000 0.000000
1.050000 0.250000 0.000000
1.050000 0.275000 0.000000
1.050000 0.300000 0.000000
1.050000 0.325000 0.000000
1.050000 0.350000 0.000000
1.050000 0.375000 0.000000
1.050000 0.400000 0.000000
1.050000 0.425000 0.000000
1.050000 0.450000 0.000000
1.050000 0.475000 0.000000
1.050000 0.500000 0.000000
1.050000 0.525000 0.000000
1.050000 0.550000 0.000000
1.050000 0.575000 0.000000
1.050000 0.600000 0.000000
1.075000 -0.075000 0.000000
1.075000 -0.050000 0.000000
1.075000 -0.025000 0.000000
1.075000 0.000000 0.000000
1.075000 0.025000 0.000000
1.075000 0.050000 0.000000
1.075000 0.075000 0.000000
1.075000 0.100000 0.000000
1.075000 0.125000 0.000000
1.075000 0.150000 0.000000
1.075000 0.175000 0.000000
1.075000 0.200000 0.000000
1.075000 0.225000 0.000000
1.075000 0.250000 0.000000
1.075000 0.275000 0.000000
1.075000 0.300000 0.000000
1.075000 0.325000 0.000000
1.075000 0.350000 0.000000
1.075000 0.375000 0.000000
1.075000 0.400000 0.000000
1.075000 0.425000 0.000000
1.075000 0.450000 0.000000
1.075000 0.475000 0.000000
1.075000 0.500000 0.000000
1.075000 0.525000 0.000000
1.075000 0.550000 0.000000
1.075000 0.575000 0.000000
1.075000 0.600000 0.000000
1.100000 -0.075000 0.000000
1.100000 -0.050000 0.000000
1.100000 -0.025000 0.000000
1.100000 0.000000 0.000000
1.100000 0.025000 0.000000
1.100000 0.050000 0.000000
1.100000 0.075000 0.000000
1.100000 0.100000 0.000000
1.100000 0.125000 0.000000
1.100000 0.150000 0.000000
1.100000 0.175000 0.000000
1.100000 0.200000 0.000000
1.100000 0.225000 0.000000
1.100000 0.250000 0.000000
1.100000 0.275000 0.000000
1.100000 0.300000 0.000000
1.100000 0.325000 0.000000
1.100000 0.350000 0.000000
1.100000 0.375000 0.000000
1.100000 0.400000 0.000000
1.100000 0.425000 0.000000
1.100000 0.450000 0.000000
1.100000 0.475000 0.000000
1.100000 0.500000 0.000000
1.100000 0.525000 0.000000
1.100000 0.550000 0.000000
1.100000 0.575000 0.000000
1.100000 0.600000 0.000000
</DataArray>
</Points>
<PointData>
<DataArray NumberOfComponents='1' type='Int32' Name='ParticleType' format='ascii'>
3
3
3
3
3
3
3
3
3
3
3
3
3
3
3
3
3
3
3
3
3
3
3
3
3
3
2
2
3
3
3
3
3
3
3
3
3
3
3
3
3
3
3
3
3
3
3
3
3
3
3
3
3
3
2
2
3
3
2
2
2
2
2
2
2
2
2
2
2
2
2
2
2
2
2
2
2
2
2
2
2
2
2
2
3
3
2
2
2
2
2
2
2
2
2
2
2
2
2
2
2
2
2
2
2
2
2
2
2
2
2
2
3
3
2
2
0
0
0
0
0
0
0
0
0
0
0
0
0
0
0
0
0
0
0
0
3
3
2
2
0
0
0
0
0
0
0
0
0
0
0
0
0
0
0
0
0
0
0
0
3
3
2
2
0
0
0
0
0
0
0
0
0
0
0
0
0
0
0
0
0
0
0
0
3
3
2
2
0
0
0
0
0
0
0
0
0
0
0
0
0
0
0
0
0
0
0
0
3
3
2
2
0
0
0
0
0
0
0
0
0
0
0
0
0
0
0
0
0
0
0
0
3
3
2
2
0
0
0
0
0
0
0
0
0
0
0
0
0
0
0
0
0
0
0
0
3
3
2
2
0
0
0
0
0
0
0
0
0
0
0
0
0
0
0
0
0
0
0
0
3
3
2
2
0
0
0
0
0
0
0
0
0
0
0
0
0
0
0
0
0
0
0
0
3
3
2
2
0
0
0
0
0
0
0
0
0
0
0
0
0
0
0
0
0
0
0
0
3
3
2
2
0
0
0
0
0
0
0
0
0
0
0
0
0
0
0
0
0
0
0
0
3
3
2
2
3
3
2
2
3
3
2
2
3
3
2
2
3
3
2
2
3
3
2
2
3
3
2
2
3
3
2
2
3
3
2
2
3
3
2
2
3
3
2
2
3
3
2
2
3
3
2
2
3
3
2
2
3
3
2
2
3
3
2
2
3
3
2
2
3
3
2
2
3
3
2
2
3
3
2
2
3
3
2
2
3
3
2
2
3
3
2
2
3
3
2
2
3
3
2
2
3
3
2
2
3
3
2
2
3
3
2
2
3
3
2
2
3
3
2
2
3
3
2
2
2
2
2
2
2
2
2
2
2
2
2
2
2
2
2
2
2
2
2
2
2
2
2
2
3
3
2
2
2
2
2
2
2
2
2
2
2
2
2
2
2
2
2
2
2
2
2
2
2
2
2
2
3
3
3
3
3
3
3
3
3
3
3
3
3
3
3
3
3
3
3
3
3
3
3
3
3
3
2
2
3
3
3
3
3
3
3
3
3
3
3
3
3
3
3
3
3
3
3
3
3
3
3
3
3
3
2
2
</DataArray>
<DataArray NumberOfComponents='1' type='Float32' Name='Velocity' format='ascii'>
0.000000
0.000000
0.000000
0.000000
0.000000
0.000000
0.000000
0.000000
0.000000
0.000000
0.000000
0.000000
0.000000
0.000000
0.000000
0.000000
0.000000
0.000000
0.000000
0.000000
0.000000
0.000000
0.000000
0.000000
0.000000
0.000000
0.000000
0.000000
0.000000
0.000000
0.000000
0.000000
0.000000
0.000000
0.000000
0.000000
0.000000
0.000000
0.000000
0.000000
0.000000
0.000000
0.000000
0.000000
0.000000
0.000000
0.000000
0.000000
0.000000
0.000000
0.000000
0.000000
0.000000
0.000000
0.000000
0.000000
0.000000
0.000000
0.000000
0.000000
0.000000
0.000000
0.000000
0.000000
0.000000
0.000000
0.000000
0.000000
0.000000
0.000000
0.000000
0.000000
0.000000
0.000000
0.000000
0.000000
0.000000
0.000000
0.000000
0.000000
0.000000
0.000000
0.000000
0.000000
0.000000
0.000000
0.000000
0.000000
0.000000
0.000000
0.000000
0.000000
0.000000
0.000000
0.000000
0.000000
0.000000
0.000000
0.000000
0.000000
0.000000
0.000000
0.000000
0.000000
0.000000
0.000000
0.000000
0.000000
0.000000
0.000000
0.000000
0.000000
0.000000
0.000000
0.000000
0.000000
0.081717
0.386941
0.245626
0.095386
0.363451
0.302012
0.428712
0.186559
0.610533
0.682819
0.681355
0.913302
0.786683
0.731983
0.667532
0.771186
0.750860
0.789666
0.782657
0.773596
0.000000
0.000000
0.000000
0.000000
0.557951
0.229334
0.454342
0.663661
0.221224
0.425082
0.348424
0.528302
0.211528
0.477875
0.358142
0.242318
0.555639
0.714965
0.763065
0.819045
0.858475
0.862678
0.913722
0.811170
0.000000
0.000000
0.000000
0.000000
0.188171
0.503289
0.588401
0.213839
0.496272
0.999964
1.074457
0.509439
0.735274
0.578073
0.595989
0.725841
0.752255
0.628435
0.526625
0.571636
0.581470
0.685925
0.665052
1.005278
0.000000
0.000000
0.000000
0.000000
0.663318
0.559941
0.513371
0.894862
0.427241
1.689179
0.590071
0.600367
0.760241
0.730955
0.505900
0.925655
0.917420
0.721786
0.767386
0.777064
1.018488
0.873263
0.882830
0.882834
0.000000
0.000000
0.000000
0.000000
0.870368
1.133615
1.699359
1.173952
1.123541
0.238477
0.779601
1.118736
0.753707
0.776780
1.408439
0.946457
0.559102
0.531755
0.504993
0.663949
0.700609
0.886533
0.913827
1.196531
0.000000
0.000000
0.000000
0.000000
1.212545
1.460641
1.232432
0.960249
1.783891
1.844387
1.093174
1.601111
1.247815
1.267806
1.353686
1.203609
0.979670
0.815010
0.654154
0.886508
1.087621
1.063416
1.079558
1.143977
0.000000
0.000000
0.000000
0.000000
1.893110
1.780067
1.735099
2.029713
1.828020
1.920080
1.824874
2.001911
1.668749
1.718572
1.510742
1.474297
0.900494
1.422118
1.207825
1.272187
1.467244
1.220481
1.182058
1.293815
0.000000
0.000000
0.000000
0.000000
2.778541
2.314704
2.859097
2.094239
2.554987
2.974073
2.506691
2.310368
2.122120
1.765611
1.563165
1.322838
1.766806
1.762503
1.320623
1.435072
1.443149
1.491688
1.516567
1.529357
0.000000
0.000000
0.000000
0.000000
2.729449
2.942741
2.813215
2.187827
2.828614
2.747294
3.206296
2.570645
2.540720
2.619027
2.566520
2.648507
2.195928
2.524011
2.023770
1.790944
1.928801
1.709258
1.574118
1.452876
0.000000
0.000000
0.000000
0.000000
2.711495
3.130687
2.780564
2.843304
2.791487
2.714299
2.686496
2.763076
2.625105
2.762181
2.887422
2.891585
2.510475
2.743624
2.530103
2.609102
2.166177
2.208988
1.939116
1.769723
0.000000
0.000000
0.000000
0.000000
0.000000
0.000000
0.000000
0.000000
0.000000
0.000000
0.000000
0.000000
0.000000
0.000000
0.000000
0.000000
0.000000
0.000000
0.000000
0.000000
0.000000
0.000000
0.000000
0.000000
0.000000
0.000000
0.000000
0.000000
0.000000
0.000000
0.000000
0.000000
0.000000
0.000000
0.000000
0.000000
0.000000
0.000000
0.000000
0.000000
0.000000
0.000000
0.000000
0.000000
0.000000
0.000000
0.000000
0.000000
0.000000
0.000000
0.000000
0.000000
0.000000
0.000000
0.000000
0.000000
0.000000
0.000000
0.000000
0.000000
0.000000
0.000000
0.000000
0.000000
0.000000
0.000000
0.000000
0.000000
0.000000
0.000000
0.000000
0.000000
0.000000
0.000000
0.000000
0.000000
0.000000
0.000000
0.000000
0.000000
0.000000
0.000000
0.000000
0.000000
0.000000
0.000000
0.000000
0.000000
0.000000
0.000000
0.000000
0.000000
0.000000
0.000000
0.000000
0.000000
0.000000
0.000000
0.000000
0.000000
0.000000
0.000000
0.000000
0.000000
0.000000
0.000000
0.000000
0.000000
0.000000
0.000000
0.000000
0.000000
0.000000
0.000000
0.000000
0.000000
0.000000
0.000000
0.000000
0.000000
0.000000
0.000000
0.000000
0.000000
0.000000
0.000000
0.000000
0.000000
0.000000
0.000000
0.000000
0.000000
0.000000
0.000000
0.000000
0.000000
0.000000
0.000000
0.000000
0.000000
0.000000
0.000000
0.000000
0.000000
0.000000
0.000000
0.000000
0.000000
0.000000
0.000000
0.000000
0.000000
0.000000
0.000000
0.000000
0.000000
0.000000
0.000000
0.000000
0.000000
0.000000
0.000000
0.000000
0.000000
0.000000
0.000000
0.000000
0.000000
0.000000
0.000000
0.000000
0.000000
0.000000
0.000000
0.000000
0.000000
0.000000
0.000000
0.000000
0.000000
0.000000
0.000000
0.000000
0.000000
0.000000
0.000000
0.000000
0.000000
0.000000
0.000000
0.000000
0.000000
0.000000
0.000000
0.000000
0.000000
0.000000
0.000000
0.000000
0.000000
0.000000
0.000000
0.000000
0.000000
0.000000
0.000000
0.000000
0.000000
0.000000
0.000000
0.000000
0.000000
0.000000
0.000000
0.000000
0.000000
0.000000
0.000000
0.000000
0.000000
0.000000
0.000000
0.000000
0.000000
0.000000
0.000000
0.000000
0.000000
0.000000
0.000000
0.000000
0.000000
</DataArray>
<DataArray NumberOfComponents='1' type='Float32' Name='pressure' format='ascii'>
0.000000
0.000000
0.000000
0.000000
0.000000
0.000000
0.000000
0.000000
0.000000
0.000000
0.000000
0.000000
0.000000
0.000000
0.000000
0.000000
0.000000
0.000000
0.000000
0.000000
0.000000
0.000000
0.000000
0.000000
0.000000
0.000000
0.000000
0.000000
0.000000
0.000000
0.000000
0.000000
0.000000
0.000000
0.000000
0.000000
0.000000
0.000000
0.000000
0.000000
0.000000
0.000000
0.000000
0.000000
0.000000
0.000000
0.000000
0.000000
0.000000
0.000000
0.000000
0.000000
0.000000
0.000000
0.000000
0.000000
0.000000
0.000000
586.320923
636.930054
1115.935547
215.298737
0.000000
10.287500
981.198120
1889.597412
0.000000
0.000000
0.000000
0.000000
0.000000
0.000000
0.000000
0.000000
0.000000
0.000000
0.000000
0.000000
0.000000
0.000000
0.000000
0.000000
0.000000
0.000000
0.000000
0.000000
751.610474
0.000000
1290.684570
1028.368042
443.693298
170.920883
554.400269
2285.240479
0.000000
0.000000
0.000000
0.000000
94.426193
0.000000
0.000000
0.000000
0.000000
0.000000
0.000000
0.000000
0.000000
0.000000
0.000000
0.000000
0.000000
0.000000
0.000000
0.000000
1288.356934
0.000000
786.190430
2513.072021
586.512390
1099.156616
1219.854004
1704.277100
1650.468750
1790.804688
401.817688
1390.273193
1506.055664
0.000000
2101.659668
349.576447
380.640656
403.212158
0.000000
0.000000
0.000000
0.000000
0.000000
0.000000
3269.727539
3066.046143
2213.791992
2603.157471
2538.770996
1774.596313
2169.422852
750.904114
1287.321533
1429.782349
1011.383850
688.429199
95.710838
1759.535400
0.000000
347.149536
200.704178
0.000000
479.439514
0.000000
0.000000
0.000000
0.000000
0.000000
3809.533691
4301.220703
1079.699585
1605.911011
3022.005371
1015.458984
2076.825928
2321.032227
580.043335
844.932373
2034.198975
1036.986572
943.590149
797.096497
665.892639
1176.038696
215.872269
758.656555
0.000000
912.571594
0.000000
177.285172
0.000000
0.000000
2253.918213
1570.315796
3283.059570
1001.213989
1973.984985
4587.559570
3986.875732
1341.285522
946.975464
2419.847168
1988.662354
2900.416504
1255.412476
763.939880
156.347031
976.297424
0.000000
360.985107
865.402771
0.000000
223.251083
0.000000
0.000000
0.000000
2346.706543
407.487213
3870.017578
1482.546021
1746.065552
3379.097168
1133.072144
3576.795166
2012.845337
1926.641113
2039.049683
3181.687256
0.000000
691.608643
859.573120
854.276611
404.471649
26.168779
0.000000
232.671143
0.000000
0.000000
0.000000
0.000000
4185.716309
3035.716797
0.000000
3283.206055
968.815674
1602.463623
1146.918701
3849.292969
3791.343262
1190.673340
1382.096802
3010.054443
2095.898682
1594.530884
3266.668213
2498.320557
1425.403076
907.128235
1026.915894
1065.853516
0.000000
0.000000
0.000000
0.000000
3579.912598
1915.497559
0.000000
844.146118
841.200073
1441.171631
0.000000
1504.153931
0.000000
0.000000
908.110657
1339.947021
894.683167
2844.269775
0.000000
1056.259155
0.000000
0.000000
1199.717285
123.006882
0.000000
0.000000
0.000000
0.000000
4262.082031
3503.597900
0.000000
0.000000
0.000000
962.884460
0.000000
0.000000
0.000000
0.000000
2465.186035
843.573059
0.000000
0.000000
181.160797
453.788330
282.845154
1021.204468
1982.776733
0.000000
0.000000
0.000000
0.000000
0.000000
3863.939209
3786.584717
0.000000
0.000000
0.000000
0.000000
0.000000
0.000000
0.000000
0.000000
0.000000
907.242615
0.000000
0.000000
0.000000
1073.067749
1649.112061
678.031433
463.173248
285.786285
0.000000
0.000000
0.000000
0.000000
2849.274902
2981.076416
0.000000
0.000000
0.000000
0.000000
0.000000
0.000000
0.000000
0.000000
0.000000
191.837524
0.000000
0.000000
0.000000
0.000000
0.000000
0.000000
0.000000
0.000000
0.000000
0.000000
0.000000
0.000000
2929.797119
1963.491211
0.000000
0.000000
2634.739502
836.610107
0.000000
0.000000
3226.945557
2976.256592
0.000000
0.000000
3087.424072
2549.118652
0.000000
0.000000
1250.430664
768.617554
0.000000
0.000000
258.414459
323.708282
0.000000
0.000000
0.000000
116.138519
0.000000
0.000000
952.815247
756.743591
0.000000
0.000000
337.433014
0.000000
0.000000
0.000000
0.000000
0.000000
0.000000
0.000000
0.000000
0.000000
0.000000
0.000000
1265.498047
1266.020996
0.000000
0.000000
0.000000
0.000000
0.000000
0.000000
0.000000
0.000000
0.000000
0.000000
0.000000
0.000000
0.000000
0.000000
0.000000
0.000000
0.000000
0.000000
0.000000
0.000000
0.000000
0.000000
0.000000
0.000000
0.000000
0.000000
0.000000
0.000000
0.000000
0.000000
0.000000
0.000000
0.000000
0.000000
0.000000
0.000000
0.000000
0.000000
0.000000
0.000000
0.000000
0.000000
0.000000
0.000000
0.000000
0.000000
0.000000
0.000000
0.000000
0.000000
0.000000
0.000000
0.000000
0.000000
0.000000
0.000000
0.000000
0.000000
0.000000
0.000000
0.000000
0.000000
0.000000
0.000000
0.000000
0.000000
0.000000
0.000000
0.000000
0.000000
0.000000
0.000000
0.000000
0.000000
0.000000
0.000000
0.000000
0.000000
0.000000
0.000000
0.000000
0.000000
0.000000
0.000000
0.000000
0.000000
0.000000
0.000000
0.000000
0.000000
0.000000
0.000000
0.000000
0.000000
0.000000
0.000000
0.000000
0.000000
0.000000
0.000000
0.000000
0.000000
0.000000
0.000000
0.000000
0.000000
0.000000
0.000000
0.000000
0.000000
0.000000
0.000000
0.000000
0.000000
0.000000
0.000000
0.000000
0.000000
0.000000
0.000000
0.000000
0.000000
0.000000
0.000000
0.000000
0.000000
0.000000
0.000000
0.000000
0.000000
0.000000
0.000000
0.000000
0.000000
0.000000
0.000000
0.000000
0.000000
0.000000
0.000000
0.000000
0.000000
0.000000
0.000000
0.000000
0.000000
0.000000
0.000000
0.000000
0.000000
0.000000
0.000000
0.000000
0.000000
0.000000
0.000000
0.000000
0.000000
0.000000
0.000000
0.000000
0.000000
0.000000
0.000000
0.000000
0.000000
0.000000
0.000000
0.000000
0.000000
0.000000
0.000000
0.000000
0.000000
0.000000
0.000000
0.000000
0.000000
0.000000
0.000000
0.000000
0.000000
0.000000
0.000000
</DataArray>
</PointData>
<Cells>
<DataArray type='Int32' Name='connectivity' format='ascii'>
0
1
2
3
4
5
6
7
8
9
10
11
12
13
14
15
16
17
18
19
20
21
22
23
24
25
26
27
28
29
30
31
32
33
34
35
36
37
38
39
40
41
42
43
44
45
46
47
48
49
50
51
52
53
54
55
56
57
58
59
60
61
62
63
64
65
66
67
68
69
70
71
72
73
74
75
76
77
78
79
80
81
82
83
84
85
86
87
88
89
90
91
92
93
94
95
96
97
98
99
100
101
102
103
104
105
106
107
108
109
110
111
112
113
114
115
116
117
118
119
120
121
122
123
124
125
126
127
128
129
130
131
132
133
134
135
136
137
138
139
140
141
142
143
144
145
146
147
148
149
150
151
152
153
154
155
156
157
158
159
160
161
162
163
164
165
166
167
168
169
170
171
172
173
174
175
176
177
178
179
180
181
182
183
184
185
186
187
188
189
190
191
192
193
194
195
196
197
198
199
200
201
202
203
204
205
206
207
208
209
210
211
212
213
214
215
216
217
218
219
220
221
222
223
224
225
226
227
228
229
230
231
232
233
234
235
236
237
238
239
240
241
242
243
244
245
246
247
248
249
250
251
252
253
254
255
256
257
258
259
260
261
262
263
264
265
266
267
268
269
270
271
272
273
274
275
276
277
278
279
280
281
282
283
284
285
286
287
288
289
290
291
292
293
294
295
296
297
298
299
300
301
302
303
304
305
306
307
308
309
310
311
312
313
314
315
316
317
318
319
320
321
322
323