<?xml version='1.0' encoding='UTF-8'?>
<VTKFile xmlns='VTK' byte_order='LittleEndian' version='0.1' type='UnstructuredGrid'>
<UnstructuredGrid>
<Piece NumberOfCells='584' NumberOfPoints='584'>
<Points>
<DataArray NumberOfComponents='3' type='Float32' Name='Position' format='ascii'>
-0.075000 -0.075000 0.000000
-0.075000 -0.050000 0.000000
-0.075000 -0.025000 0.000000
-0.075000 0.000000 0.000000
-0.075000 0.025000 0.000000
-0.075000 0.050000 0.000000
-0.075000 0.075000 0.000000
-0.075000 0.100000 0.000000
-0.075000 0.125000 0.000000
-0.075000 0.150000 0.000000
-0.075000 0.175000 0.000000
-0.075000 0.200000 0.000000
-0.075000 0.225000 0.000000
-0.075000 0.250000 0.000000
-0.075000 0.275000 0.000000
-0.075000 0.300000 0.000000
-0.075000 0.325000 0.000000
-0.075000 0.350000 0.000000
-0.075000 0.375000 0.000000
-0.075000 0.400000 0.000000
-0.075000 0.425000 0.000000
-0.075000 0.450000 0.000000
-0.075000 0.475000 0.000000
-0.075000 0.500000 0.000000
-0.075000 0.525000 0.000000
-0.075000 0.550000 0.000000
-0.075000 0.575000 0.000000
-0.075000 0.600000 0.000000
-0.050000 -0.075000 0.000000
-0.050000 -0.050000 0.000000
-0.050000 -0.025000 0.000000
-0.050000 0.000000 0.000000
-0.050000 0.025000 0.000000
-0.050000 0.050000 0.000000
-0.050000 0.075000 0.000000
-0.050000 0.100000 0.000000
-0.050000 0.125000 0.000000
-0.050000 0.150000 0.000000
-0.050000 0.175000 0.000000
-0.050000 0.200000 0.000000
-0.050000 0.225000 0.000000
-0.050000 0.250000 0.000000
-0.050000 0.275000 0.000000
-0.050000 0.300000 0.000000
-0.050000 0.325000 0.000000
-0.050000 0.350000 0.000000
-0.050000 0.375000 0.000000
-0.050000 0.400000 0.000000
-0.050000 0.425000 0.000000
-0.050000 0.450000 0.000000
-0.050000 0.475000 0.000000
-0.050000 0.500000 0.000000
-0.050000 0.525000 0.000000
-0.050000 0.550000 0.000000
-0.050000 0.575000 0.000000
-0.050000 0.600000 0.000000
-0.025000 -0.075000 0.000000
-0.025000 -0.050000 0.000000
-0.025000 -0.025000 0.000000
-0.025000 0.000000 0.000000
-0.025000 0.025000 0.000000
-0.025000 0.050000 0.000000
-0.025000 0.075000 0.000000
-0.025000 0.100000 0.000000
-0.025000 0.125000 0.000000
-0.025000 0.150000 0.000000
-0.025000 0.175000 0.000000
-0.025000 0.200000 0.000000
-0.025000 0.225000 0.000000
-0.025000 0.250000 0.000000
-0.025000 0.275000 0.000000
-0.025000 0.300000 0.000000
-0.025000 0.325000 0.000000
-0.025000 0.350000 0.000000
-0.025000 0.375000 0.000000
-0.025000 0.400000 0.000000
-0.025000 0.425000 0.000000
-0.025000 0.450000 0.000000
-0.025000 0.475000 0.000000
-0.025000 0.500000 0.000000
-0.025000 0.525000 0.000000
-0.025000 0.550000 0.000000
-0.025000 0.575000 0.000000
-0.025000 0.600000 0.000000
0.000000 -0.075000 0.000000
0.000000 -0.050000 0.000000
0.000000 -0.025000 0.000000
0.000000 0.000000 0.000000
0.000000 0.025000 0.000000
0.000000 0.050000 0.000000
0.000000 0.075000 0.000000
0.000000 0.100000 0.000000
0.000000 0.125000 0.000000
0.000000 0.150000 0.000000
0.000000 0.175000 0.000000
0.000000 0.200000 0.000000
0.000000 0.225000 0.000000
0.000000 0.250000 0.000000
0.000000 0.275000 0.000000
0.000000 0.300000 0.000000
0.000000 0.325000 0.000000
0.000000 0.350000 0.000000
0.000000 0.375000 0.000000
0.000000 0.400000 0.000000
0.000000 0.425000 0.000000
0.000000 0.450000 0.000000
0.000000 0.475000 0.000000
0.000000 0.500000 0.000000
0.000000 0.525000 0.000000
0.000000 0.550000 0.000000
0.000000 0.575000 0.000000
0.000000 0.600000 0.000000
0.025000 -0.075000 0.000000
0.025000 -0.050000 0.000000
0.025000 -0.025000 0.000000
0.025000 0.000000 0.000000
0.260436 0.023079 0.000000
0.235974 0.024739 0.000000
0.211391 0.032712 0.000000
0.165317 0.021765 0.000000
0.355197 0.025638 0.000000
0.070481 0.025767 0.000000
0.457729 0.026600 0.000000
0.293981 0.022609 0.000000
0.196549 0.023733 0.000000
0.153829 0.057080 0.000000
0.252043 0.057065 0.000000
0.168888 0.048124 0.000000
0.144132 0.034626 0.000000
0.036306 0.018515 0.000000
0.020489 0.040871 0.000000
0.034745 0.055469 0.000000
0.095370 0.027146 0.000000
0.075682 0.044301 0.000000
0.071104 0.062605 0.000000
0.120155 0.020569 0.000000
0.050000 -0.075000 0.000000
0.050000 -0.050000 0.000000
0.050000 -0.025000 0.000000
0.050000 0.000000 0.000000
0.321527 0.024833 0.000000
0.517382 0.068347 0.000000
0.642611 0.043032 0.000000
0.597537 0.054673 0.000000
0.611871 0.041658 0.000000
0.668531 0.047118 0.000000
0.522091 0.019561 0.000000
0.758875 0.085273 0.000000
0.382855 0.022609 0.000000
0.380439 0.064118 0.000000
0.544402 0.084120 0.000000
0.454111 0.053322 0.000000
0.048230 0.050725 0.000000
0.421634 0.019196 0.000000
0.229322 0.050358 0.000000
0.272101 0.042100 0.000000
0.177258 0.067610 0.000000
0.285529 0.060064 0.000000
0.111414 0.050421 0.000000
0.124459 0.053219 0.000000
0.075000 -0.075000 0.000000
0.075000 -0.050000 0.000000
0.075000 -0.025000 0.000000
0.075000 0.000000 0.000000
0.336530 0.034564 0.000000
0.543154 0.055086 0.000000
0.560542 0.027126 0.000000
0.485569 0.022439 0.000000
0.851872 0.083157 0.000000
0.842651 0.023449 0.000000
0.861359 0.037942 0.000000
0.661856 0.076339 0.000000
0.784560 0.049013 0.000000
0.768925 0.022099 0.000000
0.612594 0.027112 0.000000
0.470828 0.044301 0.000000
0.435676 0.057524 0.000000
0.348279 0.069529 0.000000
0.356991 0.052264 0.000000
0.306305 0.071576 0.000000
0.298466 0.052556 0.000000
0.497126 0.048460 0.000000
0.414798 0.065690 0.000000
0.203614 0.060758 0.000000
0.100000 -0.075000 0.000000
0.100000 -0.050000 0.000000
0.100000 -0.025000 0.000000
0.100000 0.000000 0.000000
0.651681 0.023475 0.000000
0.579032 0.020909 0.000000
0.795269 0.032713 0.000000
0.923239 0.022751 0.000000
0.413776 0.049136 0.000000
0.901475 0.028857 0.000000
0.937153 0.089129 0.000000
0.874116 0.117538 0.000000
0.875259 0.025315 0.000000
0.894948 0.050740 0.000000
0.677267 0.023572 0.000000
0.699620 0.033517 0.000000
0.814630 0.056830 0.000000
0.814044 0.021864 0.000000
0.706332 0.074173 0.000000
0.394762 0.037442 0.000000
0.740724 0.030553 0.000000
0.792033 0.078070 0.000000
0.564333 0.050560 0.000000
0.517299 0.038580 0.000000
0.125000 -0.075000 0.000000
0.125000 -0.050000 0.000000
0.125000 -0.025000 0.000000
0.125000 0.000000 0.000000
0.930496 0.054763 0.000000
0.901441 0.093069 0.000000
0.997023 0.160216 0.000000
0.963907 0.020653 0.000000
0.981471 0.197419 0.000000
0.714806 0.048814 0.000000
0.872711 0.175644 0.000000
0.939220 0.181663 0.000000
0.927525 0.130227 0.000000
0.900101 0.116804 0.000000
0.950535 0.129822 0.000000
0.881170 0.198382 0.000000
0.805568 0.107668 0.000000
0.755188 0.064457 0.000000
0.684760 0.066684 0.000000
0.756889 0.042719 0.000000
0.906086 0.146497 0.000000
0.578394 0.107615 0.000000
0.835673 0.115609 0.000000
0.646268 0.062167 0.000000
0.150000 -0.075000 0.000000
0.150000 -0.050000 0.000000
0.150000 -0.025000 0.000000
0.150000 0.000000 0.000000
0.847221 0.169862 0.000000
1.002201 0.093319 0.000000
0.974391 0.295306 0.000000
0.804483 0.200547 0.000000
0.997442 0.063874 0.000000
0.811727 0.237181 0.000000
0.978711 0.135415 0.000000
0.821263 0.126675 0.000000
1.003122 0.136189 0.000000
0.950787 0.197292 0.000000
0.970433 0.047584 0.000000
0.912184 0.064047 0.000000
0.942957 0.036698 0.000000
0.957973 0.060969 0.000000
0.922347 0.104510 0.000000
0.865966 0.099529 0.000000
0.833934 0.050429 0.000000
0.887714 0.075795 0.000000
0.866276 0.065583 0.000000
0.719670 0.023446 0.000000
0.175000 -0.075000 0.000000
0.175000 -0.050000 0.000000
0.175000 -0.025000 0.000000
0.175000 0.000000 0.000000
0.484811 0.069262 0.000000
1.001170 0.188156 0.000000
0.994631 0.237336 0.000000
1.000443 0.216151 0.000000
0.978668 0.174644 0.000000
0.857086 0.230701 0.000000
0.993928 0.022751 0.000000
0.893985 0.217637 0.000000
0.827323 0.195995 0.000000
1.000035 0.043583 0.000000
0.932730 0.241500 0.000000
0.958275 0.216492 0.000000
0.806938 0.087254 0.000000
0.961641 0.156061 0.000000
0.957168 0.109119 0.000000
0.853852 0.191277 0.000000
0.988079 0.115668 0.000000
0.914868 0.165575 0.000000
0.854715 0.132786 0.000000
0.912988 0.186978 0.000000
0.200000 -0.075000 0.000000
0.200000 -0.050000 0.000000
0.200000 -0.025000 0.000000
0.200000 0.000000 0.000000
0.807301 0.642446 0.000000
0.822509 0.224217 0.000000
0.862178 0.315343 0.000000
0.997073 0.255642 0.000000
0.877303 0.267396 0.000000
0.905187 0.271768 0.000000
0.959587 0.336514 0.000000
0.968173 0.314581 0.000000
0.910054 0.255695 0.000000
0.759980 0.126800 0.000000
1.001246 0.280609 0.000000
0.983820 0.085966 0.000000
0.731687 0.096643 0.000000
0.828709 0.169741 0.000000
0.908502 0.205690 0.000000
0.869881 0.218792 0.000000
0.952430 0.252452 0.000000
0.864210 0.149468 0.000000
0.941279 0.155344 0.000000
0.958933 0.086704 0.000000
0.225000 -0.075000 0.000000
0.225000 -0.050000 0.000000
0.225000 -0.025000 0.000000
0.225000 0.000000 0.000000
0.878926 0.312605 0.000000
0.951580 1.286776 0.000000
0.941767 0.266178 0.000000
0.713734 0.105648 0.000000
0.520639 0.081399 0.000000
0.744678 0.163964 0.000000
0.909395 0.304480 0.000000
0.998290 0.339025 0.000000
0.943540 0.294018 0.000000
0.839360 0.262275 0.000000
0.990722 0.298027 0.000000
0.790949 0.216291 0.000000
0.558817 0.071290 0.000000
0.836500 0.071841 0.000000
0.838935 0.241502 0.000000
0.882437 0.255068 0.000000
0.770903 0.093580 0.000000
0.788569 0.162893 0.000000
0.812269 0.140524 0.000000
0.774945 0.139293 0.000000
0.250000 -0.075000 0.000000
0.250000 -0.050000 0.000000
0.250000 -0.025000 0.000000
0.250000 0.000000 0.000000
0.954010 0.962689 0.000000
0.779859 0.888426 0.000000
0.769036 0.300186 0.000000
0.858449 0.354223 0.000000
0.629884 1.018625 0.000000
0.887550 0.447367 0.000000
0.655752 0.832292 0.000000
0.743473 0.653618 0.000000
0.586553 0.173842 0.000000
0.918340 0.295523 0.000000
0.686458 0.088647 0.000000
0.774825 0.176713 0.000000
0.843700 0.274477 0.000000
0.729352 0.078609 0.000000
0.796704 0.182009 0.000000
0.886845 0.144393 0.000000
0.622974 0.162554 0.000000
0.936141 0.221544 0.000000
0.763056 0.150003 0.000000
0.971262 0.240137 0.000000
0.275000 -0.075000 0.000000
0.275000 -0.050000 0.000000
0.275000 -0.025000 0.000000
0.275000 0.000000 0.000000
0.300000 -0.075000 0.000000
0.300000 -0.050000 0.000000
0.300000 -0.025000 0.000000
0.300000 0.000000 0.000000
0.325000 -0.075000 0.000000
0.325000 -0.050000 0.000000
0.325000 -0.025000 0.000000
0.325000 0.000000 0.000000
0.350000 -0.075000 0.000000
0.350000 -0.050000 0.000000
0.350000 -0.025000 0.000000
0.350000 0.000000 0.000000
0.375000 -0.075000 0.000000
0.375000 -0.050000 0.000000
0.375000 -0.025000 0.000000
0.375000 0.000000 0.000000
0.400000 -0.075000 0.000000
0.400000 -0.050000 0.000000
0.400000 -0.025000 0.000000
0.400000 0.000000 0.000000
0.425000 -0.075000 0.000000
0.425000 -0.050000 0.000000
0.425000 -0.025000 0.000000
0.425000 0.000000 0.000000
0.450000 -0.075000 0.000000
0.450000 -0.050000 0.000000
0.450000 -0.025000 0.000000
0.450000 0.000000 0.000000
0.475000 -0.075000 0.000000
0.475000 -0.050000 0.000000
0.475000 -0.025000 0.000000
0.475000 0.000000 0.000000
0.500000 -0.075000 0.000000
0.500000 -0.050000 0.000000
0.500000 -0.025000 0.000000
0.500000 0.000000 0.000000
0.525000 -0.075000 0.000000
0.525000 -0.050000 0.000000
0.525000 -0.025000 0.000000
0.525000 0.000000 0.000000
0.550000 -0.075000 0.000000
0.550000 -0.050000 0.000000
0.550000 -0.025000 0.000000
0.550000 0.000000 0.000000
0.575000 -0.075000 0.000000
0.575000 -0.050000 0.000000
0.575000 -0.025000 0.000000
0.575000 0.000000 0.000000
0.600000 -0.075000 0.000000
0.600000 -0.050000 0.000000
0.600000 -0.025000 0.000000
0.600000 0.000000 0.000000
0.625000 -0.075000 0.000000
0.625000 -0.050000 0.000000
0.625000 -0.025000 0.000000
0.625000 0.000000 0.000000
0.650000 -0.075000 0.000000
0.650000 -0.050000 0.000000
0.650000 -0.025000 0.000000
0.650000 0.000000 0.000000
0.675000 -0.075000 0.000000
0.675000 -0.050000 0.000000
0.675000 -0.025000 0.000000
0.675000 0.000000 0.000000
0.700000 -0.075000 0.000000
0.700000 -0.050000 0.000000
0.700000 -0.025000 0.000000
0.700000 0.000000 0.000000
0.725000 -0.075000 0.000000
0.725000 -0.050000 0.000000
0.725000 -0.025000 0.000000
0.725000 0.000000 0.000000
0.750000 -0.075000 0.000000
0.750000 -0.050000 0.000000
0.750000 -0.025000 0.000000
0.750000 0.000000 0.000000
0.775000 -0.075000 0.000000
0.775000 -0.050000 0.000000
0.775000 -0.025000 0.000000
0.775000 0.000000 0.000000
0.800000 -0.075000 0.000000
0.800000 -0.050000 0.000000
0.800000 -0.025000 0.000000
0.800000 0.000000 0.000000
0.825000 -0.075000 0.000000
0.825000 -0.050000 0.000000
0.825000 -0.025000 0.000000
0.825000 0.000000 0.000000
0.850000 -0.075000 0.000000
0.850000 -0.050000 0.000000
0.850000 -0.025000 0.000000
0.850000 0.000000 0.000000
0.875000 -0.075000 0.000000
0.875000 -0.050000 0.000000
0.875000 -0.025000 0.000000
0.875000 0.000000 0.000000
0.900000 -0.075000 0.000000
0.900000 -0.050000 0.000000
0.900000 -0.025000 0.000000
0.900000 0.000000 0.000000
0.925000 -0.075000 0.000000
0.925000 -0.050000 0.000000
0.925000 -0.025000 0.000000
0.925000 0.000000 0.000000
0.950000 -0.075000 0.000000
0.950000 -0.050000 0.000000
0.950000 -0.025000 0.000000
0.950000 0.000000 0.000000
0.975000 -0.075000 0.000000
0.975000 -0.050000 0.000000
0.975000 -0.025000 0.000000
0.975000 0.000000 0.000000
1.000000 -0.075000 0.000000
1.000000 -0.050000 0.000000
1.000000 -0.025000 0.000000
1.000000 0.000000 0.000000
1.025000 -0.075000 0.000000
1.025000 -0.050000 0.000000
1.025000 -0.025000 0.000000
1.025000 0.000000 0.000000
1.025000 0.025000 0.000000
1.025000 0.050000 0.000000
1.025000 0.075000 0.000000
1.025000 0.100000 0.000000
1.025000 0.125000 0.000000
1.025000 0.150000 0.000000
1.025000 0.175000 0.000000
1.025000 0.200000 0.000000
1.025000 0.225000 0.000000
1.025000 0.250000 0.000000
1.025000 0.275000 0.000000
1.025000 0.300000 0.000000
1.025000 0.325000 0.000000
1.025000 0.350000 0.000000
1.025000 0.375000 0.000000
1.025000 0.400000 0.000000
1.025000 0.425000 0.000000
1.025000 0.450000 0.000000
1.025000 0.475000 0.000000
1.025000 0.500000 0.000000
1.025000 0.525000 0.000000
1.025000 0.550000 0.000000
1.025000 0.575000 0.000000
1.025000 0.600000 0.000000
1.050000 -0.075000 0.000000
1.050000 -0.050000 0.000000
1.050000 -0.025000 0.000000
1.050000 0.000000 0.000000
1.050000 0.025000 0.000000
1.050000 0.050000 0.000000
1.050000 0.075000 0.000000
1.050000 0.100000 0.000000
1.050000 0.125000 0.000000
1.050000 0.150000 0.000000
1.050000 0.175000 0.000000
1.050000 0.200000 0.000000
1.050000 0.225000 0.000000
1.050000 0.250000 0.000000
1.050000 0.275000 0.000000
1.050000 0.300000 0.000000
1.050000 0.325000 0.000000
1.050000 0.350000 0.000000
1.050000 0.375000 0.000000
1.050000 0.400000 0.000000
1.050000 0.425000 0.000000
1.050000 0.450000 0.000000
1.050000 0.475000 0.000000
1.050000 0.500000 0.000000
1.050000 0.525000 0.000000
1.050000 0.550000 0.000000
1.050000 0.575000 0.000000
1.050000 0.600000 0.000000
1.075000 -0.075000 0.000000
1.075000 -0.050000 0.000000
1.075000 -0.025000 0.000000
1.075000 0.000000 0.000000
1.075000 0.025000 0.000000
1.075000 0.050000 0.000000
1.075000 0.075000 0.000000
1.075000 0.100000 0.000000
1.075000 0.125000 0.000000
1.075000 0.150000 0.000000
1.075000 0.175000 0.000000
1.075000 0.200000 0.000000
1.075000 0.225000 0.000000
1.075000 0.250000 0.000000
1.075000 0.275000 0.000000
1.075000 0.300000 0.000000
1.075000 0.325000 0.000000
1.075000 0.350000 0.000000
1.075000 0.375000 0.000000
1.075000 0.400000 0.000000
1.075000 0.425000 0.000000
1.075000 0.450000 0.000000
1.075000 0.475000 0.000000
1.075000 0.500000 0.000000
1.075000 0.525000 0.000000
1.075000 0.550000 0.000000
1.075000 0.575000 0.000000
1.075000 0.600000 0.000000
1.100000 -0.075000 0.000000
1.100000 -0.050000 0.000000
1.100000 -0.025000 0.000000
1.100000 0.000000 0.000000
1.100000 0.025000 0.000000
1.100000 0.050000 0.000000
1.100000 0.075000 0.000000
1.100000 0.100000 0.000000
1.100000 0.125000 0.000000
1.100000 0.150000 0.000000
1.100000 0.175000 0.000000
1.100000 0.200000 0.000000
1.100000 0.225000 0.000000
1.100000 0.250000 0.000000
1.100000 0.275000 0.000000
1.100000 0.300000 0.000000
1.100000 0.325000 0.000000
1.100000 0.350000 0.000000
1.100000 0.375000 0.000000
1.100000 0.400000 0.000000
1.100000 0.425000 0.000000
1.100000 0.450000 0.000000
1.100000 0.475000 0.000000
1.100000 0.500000 0.000000
1.100000 0.525000 0.000000
1.100000 0.550000 0.000000
1.100000 0.575000 0.000000
1.100000 0.600000 0.000000
</DataArray>
</Points>
<PointData>
<DataArray NumberOfComponents='1' type='Int32' Name='ParticleType' format='ascii'>
3
3
3
3
3
3
3
3
3
3
3
3
3
3
3
3
3
3
3
3
3
3
3
3
3
3
2
2
3
3
3
3
3
3
3
3
3
3
3
3
3
3
3
3
3
3
3
3
3
3
3
3
3
3
2
2
3
3
2
2
2
2
2
2
2
2
2
2
2
2
2
2
2
2
2
2
2
2
2
2
2
2
2
2
3
3
2
2
2
2
2
2
2
2
2
2
2
2
2
2
2
2
2
2
2
2
2
2
2
2
2
2
3
3
2
2
0
0
0
0
0
0
0
0
0
0
0
0
0
0
0
0
0
0
0
0
3
3
2
2
0
0
0
0
0
0
0
0
0
0
0
0
0
0
0
0
0
0
0
0
3
3
2
2
0
0
0
0
0
0
0
0
0
0
0
0
0
0
0
0
0
0
0
0
3
3
2
2
0
0
0
0
0
0
0
0
0
0
0
0
0
0
0
0
0
0
0
0
3
3
2
2
0
0
0
0
0
0
0
0
0
0
0
0
0
0
0
0
0
0
0
0
3
3
2
2
0
0
0
0
0
0
0
0
0
0
0
0
0
0
0
0
0
0
0
0
3
3
2
2
0
0
0
0
0
0
0
0
0
0
0
0
0
0
0
0
0
0
0
0
3
3
2
2
0
0
0
0
0
0
0
0
0
0
0
0
0
0
0
0
0
0
0
0
3
3
2
2
0
0
0
0
0
0
0
0
0
0
0
0
0
0
0
0
0
0
0
0
3
3
2
2
0
0
0
0
0
0
0
0
0
0
0
0
0
0
0
0
0
0
0
0
3
3
2
2
3
3
2
2
3
3
2
2
3
3
2
2
3
3
2
2
3
3
2
2
3
3
2
2
3
3
2
2
3
3
2
2
3
3
2
2
3
3
2
2
3
3
2
2
3
3
2
2
3
3
2
2
3
3
2
2
3
3
2
2
3
3
2
2
3
3
2
2
3
3
2
2
3
3
2
2
3
3
2
2
3
3
2
2
3
3
2
2
3
3
2
2
3
3
2
2
3
3
2
2
3
3
2
2
3
3
2
2
3
3
2
2
3
3
2
2
3
3
2
2
2
2
2
2
2
2
2
2
2
2
2
2
2
2
2
2
2
2
2
2
2
2
2
2
3
3
2
2
2
2
2
2
2
2
2
2
2
2
2
2
2
2
2
2
2
2
2
2
2
2
2
2
3
3
3
3
3
3
3
3
3
3
3
3
3
3
3
3
3
3
3
3
3
3
3
3
3
3
2
2
3
3
3
3
3
3
3
3
3
3
3
3
3
3
3
3
3
3
3
3
3
3
3
3
3
3
2
2
</DataArray>
<DataArray NumberOfComponents='1' type='Float32' Name='Velocity' format='ascii'>
0.000000
0.000000
0.000000
0.000000
0.000000
0.000000
0.000000
0.000000
0.000000
0.000000
0.000000
0.000000
0.000000
0.000000
0.000000
0.000000
0.000000
0.000000
0.000000
0.000000
0.000000
0.000000
0.000000
0.000000
0.000000
0.000000
0.000000
0.000000
0.000000
0.000000
0.000000
0.000000
0.000000
0.000000
0.000000
0.000000
0.000000
0.000000
0.000000
0.000000
0.000000
0.000000
0.000000
0.000000
0.000000
0.000000
0.000000
0.000000
0.000000
0.000000
0.000000
0.000000
0.000000
0.000000
0.000000
0.000000
0.000000
0.000000
0.000000
0.000000
0.000000
0.000000
0.000000
0.000000
0.000000
0.000000
0.000000
0.000000
0.000000
0.000000
0.000000
0.000000
0.000000
0.000000
0.000000
0.000000
0.000000
0.000000
0.000000
0.000000
0.000000
0.000000
0.000000
0.000000
0.000000
0.000000
0.000000
0.000000
0.000000
0.000000
0.000000
0.000000
0.000000
0.000000
0.000000
0.000000
0.000000
0.000000
0.000000
0.000000
0.000000
0.000000
0.000000
0.000000
0.000000
0.000000
0.000000
0.000000
0.000000
0.000000
0.000000
0.000000
0.000000
0.000000
0.000000
0.000000
0.508950
0.134379
0.258066
0.263491
0.221809
0.038944
0.492499
0.212778
0.205288
0.086262
0.456846
0.060843
0.229234
0.101874
0.132835
0.139782
0.283891
0.160098
0.161743
0.238859
0.000000
0.000000
0.000000
0.000000
0.345479
1.118546
0.989332
0.962933
0.762758
0.564597
0.344555
0.797325
0.371494
0.300472
0.643253
0.289489
0.064820
0.395238
0.321580
0.218379
0.298114
0.237044
0.416032
0.165374
0.000000
0.000000
0.000000
0.000000
0.335256
0.805428
1.089870
0.559187
0.665415
0.582314
0.401066
0.749593
0.580150
0.384902
0.866701
0.447726
0.566174
0.352984
0.788751
0.613994
0.171966
0.167676
0.616199
0.162290
0.000000
0.000000
0.000000
0.000000
1.038450
0.468615
0.100824
0.091618
0.536381
0.388559
0.194998
0.730797
0.183971
0.120235
0.519791
0.708595
0.738845
0.060320
0.535587
0.840344
0.491743
1.116333
1.380271
0.995139
0.000000
0.000000
0.000000
0.000000
0.187644
0.252527
0.328427
0.132412
0.634101
0.885718
1.021471
0.594437
0.197739
0.245059
0.089580
0.499269
2.408083
0.930259
0.493035
0.400639
0.447532
0.498896
0.983786
1.241591
0.000000
0.000000
0.000000
0.000000
1.285188
0.332154
0.679423
2.033623
0.153590
2.064183
0.294257
1.683041
0.157266
0.615451
0.338588
0.463339
0.020518
0.220603
0.821631
0.451440
0.301069
0.060814
0.189894
0.171667
0.000000
0.000000
0.000000
0.000000
2.277459
0.204172
0.477179
0.065463
0.238910
1.364025
0.146986
0.518255
1.611439
0.017102
0.476711
0.768398
1.614466
0.245998
0.356511
1.704130
0.347985
0.498206
0.964203
0.565119
0.000000
0.000000
0.000000
0.000000
1.623919
1.529507
1.672988
0.420713
0.896647
1.107403
1.476650
0.854758
1.025178
2.274704
0.789496
0.103156
0.565425
1.720543
0.462705
1.289990
0.970847
0.581090
0.509081
0.376663
0.000000
0.000000
0.000000
0.000000
1.565405
0.556841
0.598029
1.621095
0.439883
2.406256
1.180022
1.523134
0.955698
1.285539
0.358273
1.828986
0.357665
0.838280
1.357883
1.226363
1.032972
1.532217
1.359019
1.761126
0.000000
0.000000
0.000000
0.000000
1.289844
1.311720
2.184103
2.005110
1.316417
1.915334
1.495028
1.730236
2.571583
0.911407
1.667567
2.112295
1.167717
0.609983
0.750438
0.843883
2.162520
0.649216
2.523302
0.359975
0.000000
0.000000
0.000000
0.000000
0.000000
0.000000
0.000000
0.000000
0.000000
0.000000
0.000000
0.000000
0.000000
0.000000
0.000000
0.000000
0.000000
0.000000
0.000000
0.000000
0.000000
0.000000
0.000000
0.000000
0.000000
0.000000
0.000000
0.000000
0.000000
0.000000
0.000000
0.000000
0.000000
0.000000
0.000000
0.000000
0.000000
0.000000
0.000000
0.000000
0.000000
0.000000
0.000000
0.000000
0.000000
0.000000
0.000000
0.000000
0.000000
0.000000
0.000000
0.000000
0.000000
0.000000
0.000000
0.000000
0.000000
0.000000
0.000000
0.000000
0.000000
0.000000
0.000000
0.000000
0.000000
0.000000
0.000000
0.000000
0.000000
0.000000
0.000000
0.000000
0.000000
0.000000
0.000000
0.000000
0.000000
0.000000
0.000000
0.000000
0.000000
0.000000
0.000000
0.000000
0.000000
0.000000
0.000000
0.000000
0.000000
0.000000
0.000000
0.000000
0.000000
0.000000
0.000000
0.000000
0.000000
0.000000
0.000000
0.000000
0.000000
0.000000
0.000000
0.000000
0.000000
0.000000
0.000000
0.000000
0.000000
0.000000
0.000000
0.000000
0.000000
0.000000
0.000000
0.000000
0.000000
0.000000
0.000000
0.000000
0.000000
0.000000
0.000000
0.000000
0.000000
0.000000
0.000000
0.000000
0.000000
0.000000
0.000000
0.000000
0.000000
0.000000
0.000000
0.000000
0.000000
0.000000
0.000000
0.000000
0.000000
0.000000
0.000000
0.000000
0.000000
0.000000
0.000000
0.000000
0.000000
0.000000
0.000000
0.000000
0.000000
0.000000
0.000000
0.000000
0.000000
0.000000
0.000000
0.000000
0.000000
0.000000
0.000000
0.000000
0.000000
0.000000
0.000000
0.000000
0.000000
0.000000
0.000000
0.000000
0.000000
0.000000
0.000000
0.000000
0.000000
0.000000
0.000000
0.000000
0.000000
0.000000
0.000000
0.000000
0.000000
0.000000
0.000000
0.000000
0.000000
0.000000
0.000000
0.000000
0.000000
0.000000
0.000000
0.000000
0.000000
0.000000
0.000000
0.000000
0.000000
0.000000
0.000000
0.000000
0.000000
0.000000
0.000000
0.000000
0.000000
0.000000
0.000000
0.000000
0.000000
0.000000
0.000000
0.000000
0.000000
0.000000
0.000000
0.000000
0.000000
0.000000
0.000000
0.000000
0.000000
0.000000
0.000000
0.000000
0.000000
0.000000
0.000000
0.000000
</DataArray>
<DataArray NumberOfComponents='1' type='Float32' Name='pressure' format='ascii'>
0.000000
0.000000
0.000000
0.000000
0.000000
0.000000
0.000000
0.000000
0.000000
0.000000
0.000000
0.000000
0.000000
0.000000
0.000000
0.000000
0.000000
0.000000
0.000000
0.000000
0.000000
0.000000
0.000000
0.000000
0.000000
0.000000
0.000000
0.000000
0.000000
0.000000
0.000000
0.000000
0.000000
0.000000
0.000000
0.000000
0.000000
0.000000
0.000000
0.000000
0.000000
0.000000
0.000000
0.000000
0.000000
0.000000
0.000000
0.000000
0.000000
0.000000
0.000000
0.000000
0.000000
0.000000
0.000000
0.000000
0.000000
0.000000
733.453857
523.265747
869.496765
1093.978516
0.000000
0.000000
0.000000
0.000000
0.000000
0.000000
0.000000
0.000000
0.000000
0.000000
0.000000
0.000000
0.000000
0.000000
0.000000
0.000000
0.000000
0.000000
0.000000
0.000000
0.000000
0.000000
0.000000
0.000000
918.693542
0.000000
0.000000
0.000000
0.000000
0.000000
0.000000
0.000000
0.000000
0.000000
0.000000
0.000000
0.000000
0.000000
0.000000
0.000000
0.000000
0.000000
0.000000
0.000000
0.000000
0.000000
0.000000
0.000000
0.000000
0.000000
0.000000
0.000000
2801.082764
1206.496338
1645.668091
193.767273
478.260651
0.000000
250.588470
247.846283
0.000000
0.000000
0.000000
0.000000
0.000000
379.909149
0.000000
0.000000
945.764954
0.000000
0.000000
0.000000
0.000000
38.453720
0.000000
0.000000
2190.827148
0.000000
0.000000
10080.483398
3398.635742
0.000000
0.000000
5764.452148
179.280762
8952.441406
615.216431
0.000000
0.000000
0.000000
0.000000
0.000000
0.000000
0.000000
0.000000
0.000000
0.000000
0.000000
0.000000
0.000000
80.435188
0.000000
0.000000
3175.735840
0.000000
1383.124023
1888.904541
0.000000
2089.653809
0.000000
0.000000
3532.323730
1481.724854
3181.510742
0.000000
0.000000
0.000000
0.000000
436.804779
897.364746
0.000000
0.000000
0.000000
0.000000
597.575439
165.845810
3782.728760
866.765137
2873.281494
1936.601562
964.158081
1883.319092
0.000000
2469.428955
1492.869751
1489.444092
4183.179688
3677.272217
0.000000
1973.902832
818.181641
0.000000
3773.847412
0.000000
0.000000
0.000000
0.000000
0.000000
2109.005127
1894.382568
2090.867188
849.036011
615.369629
2336.865234
42.430988
0.000000
0.000000
349.332733
269.163574
0.000000
1248.631592
407.608643
0.000000
1528.158081
3598.092773
3873.218506
1358.961304
0.000000
0.000000
0.000000
0.000000
0.000000
775.751831
0.000000
1648.564087
1728.353271
0.000000
1632.514160
976.836365
0.000000
618.305847
0.000000
1590.640991
906.918640
1124.976440
1793.626831
1537.293091
2039.464600
1187.024292
1125.867065
1783.753784
1509.410278
645.404358
4353.840820
0.000000
0.000000
1294.174072
189.516739
0.000000
1506.235718
2763.715820
166.099396
304.172729
589.347656
924.384460
0.000000
0.000000
2877.942139
0.000000
0.000000
0.000000
1025.159912
1760.366211
0.000000
0.000000
0.000000
809.969238
388.140533
0.000000
0.000000
1119.704102
1255.268799
0.000000
1015.643127
0.000000
0.000000
0.000000
0.000000
0.000000
0.000000
0.000000
0.000000
0.000000
1246.876831
0.000000
0.000000
529.291260
404.407837
0.000000
1602.100342
1912.549805
1076.625244
0.000000
0.000000
617.080566
700.310547
0.000000
0.000000
0.000000
0.000000
0.000000
0.000000
0.000000
0.000000
0.000000
0.000000
0.000000
0.000000
0.000000
1613.270508
0.000000
0.000000
2145.858398
2476.953857
0.000000
3259.376221
0.000000
0.000000
1454.367554
838.924194
0.000000
0.000000
0.000000
0.000000
0.000000
0.000000
0.000000
0.000000
0.000000
0.000000
0.000000
0.000000
0.000000
3670.228027
1331.160645
0.000000
0.000000
0.000000
3788.906982
0.000000
0.000000
0.000000
1288.158203
345.791351
0.000000
0.000000
1642.103760
161.853439
0.000000
0.000000
1040.021362
1903.022827
0.000000
0.000000
809.564453
849.280579
0.000000
0.000000
1911.186401
810.670288
0.000000
0.000000
2480.999756
867.817932
0.000000
0.000000
3641.291260
1618.873779
0.000000
0.000000
711.922119
0.000000
0.000000
0.000000
2007.899414
0.000000
0.000000
0.000000
3208.883301
1760.211304
0.000000
0.000000
4468.603516
4244.942383
0.000000
0.000000
1524.251587
0.000000
0.000000
0.000000
3265.593506
3752.861572
0.000000
0.000000
1265.524170
0.000000
0.000000
0.000000
650.218567
0.000000
0.000000
0.000000
2411.284180
1572.498291
0.000000
0.000000
2857.978271
3696.293701
0.000000
0.000000
1705.083130
728.721375
0.000000
0.000000
2899.166016
2241.105225
0.000000
0.000000
2553.289062
1838.409058
0.000000
0.000000
3838.512207
3303.679932
0.000000
0.000000
3290.300049
2291.560791
0.000000
0.000000
3422.531738
2472.926270
0.000000
0.000000
2200.904297
2221.476318
0.000000
0.000000
1154.911255
167.992645
0.000000
0.000000
578.072693
0.000000
0.000000
0.000000
2871.337646
2685.184814
0.000000
0.000000
3657.088623
2178.848633
0.000000
0.000000
4381.257324
3833.480957
0.000000
0.000000
2926.259766
2519.361328
0.000000
0.000000
1330.111206
0.000000
0.000000
203.690720
669.252502
1134.146240
1250.038818
446.524261
0.000000
429.227264
0.000000
0.000000
0.000000
0.000000
0.000000
0.000000
0.000000
0.000000
0.000000
0.000000
0.000000
0.000000
0.000000
0.000000
0.000000
0.000000
0.000000
0.000000
737.011658
343.790009
0.000000
145.809357
374.232056
1693.329102
1806.622314
1288.487671
335.965424
158.987564
0.000000
0.000000
0.000000
0.000000
0.000000
0.000000
0.000000
0.000000
0.000000
0.000000
0.000000
0.000000
0.000000
0.000000
0.000000
0.000000
0.000000
0.000000
0.000000
0.000000
0.000000
0.000000
0.000000
0.000000
0.000000
0.000000
0.000000
0.000000
0.000000
0.000000
0.000000
0.000000
0.000000
0.000000
0.000000
0.000000
0.000000
0.000000
0.000000
0.000000
0.000000
0.000000
0.000000
0.000000
0.000000
0.000000
0.000000
0.000000
0.000000
0.000000
0.000000
0.000000
0.000000
0.000000
0.000000
0.000000
0.000000
0.000000
0.000000
0.000000
0.000000
0.000000
0.000000
0.000000
0.000000
0.000000
0.000000
0.000000
0.000000
0.000000
0.000000
0.000000
</DataArray>
</PointData>
<Cells>
<DataArray type='Int32' Name='connectivity' format='ascii'>
0
1
2
3
4
5
6
7
8
9
10
11
12
13
14
15
16
17
18
19
20
21
22
23
24
25
26
27
28
29
30
31
32
33
34
35
36
37
38
39
40
41
42
43
44
45
46
47
48
49
50
51
52
53
54
55
56
57
58
59
60
61
62
63
64
65
66
67
68
69
70
71
72
73
74
75
76
77
78
79
80
81
82
83
84
85
86
87
88
89
90
91
92
93
94
95
96
97
98
99
100
101
102
103
104
105
106
107
108
109
110
111
112
113
114
115
116
117
118
119
120
121
122
123
124
125
126
127
128
129
130
131
132
133
134
135
136
137
138
139
140
141
142
143
144
145
146
147
148
149
150
151
152
153
154
155
156
157
158
159
160
161
162
163
164
165
166
167
168
169
170
171
172
173
174
175
176
177
178
179
180
181
182
183
184
185
186
187
188
189
190
191
192
193
194
195
196
197
198
199
200
201
202
203
204
205
206
207
208
209
210
211
212
213
214
215
216
217
218
219
220
221
222
223
224
225
226
227
228
229
230
231
232
233
234
235
236
237
238
239
240
241
242
243
244
245
246
247
248
249
250
251
252
253
254
255
256
257
258
259
260
261
262
263
264
265
266
267
268
269
270
271
272
273
274
275
276
277
278
279
280
281
282
283
284
285
286
287
288
289
290
291
292
293
294
295
296
297
298
299
300
301
302
303
304
305
306
307
308
309
310
311
312
313
314
315