<?xml version='1.0' encoding='UTF-8'?>
<VTKFile xmlns='VTK' byte_order='LittleEndian' version='0.1' type='UnstructuredGrid'>
<UnstructuredGrid>
<Piece NumberOfCells='584' NumberOfPoints='584'>
<Points>
<DataArray NumberOfComponents='3' type='Float32' Name='Position' format='ascii'>
-0.075000 -0.075000 0.000000
-0.075000 -0.050000 0.000000
-0.075000 -0.025000 0.000000
-0.075000 0.000000 0.000000
-0.075000 0.025000 0.000000
-0.075000 0.050000 0.000000
-0.075000 0.075000 0.000000
-0.075000 0.100000 0.000000
-0.075000 0.125000 0.000000
-0.075000 0.150000 0.000000
-0.075000 0.175000 0.000000
-0.075000 0.200000 0.000000
-0.075000 0.225000 0.000000
-0.075000 0.250000 0.000000
-0.075000 0.275000 0.000000
-0.075000 0.300000 0.000000
-0.075000 0.325000 0.000000
-0.075000 0.350000 0.000000
-0.075000 0.375000 0.000000
-0.075000 0.400000 0.000000
-0.075000 0.425000 0.000000
-0.075000 0.450000 0.000000
-0.075000 0.475000 0.000000
-0.075000 0.500000 0.000000
-0.075000 0.525000 0.000000
-0.075000 0.550000 0.000000
-0.075000 0.575000 0.000000
-0.075000 0.600000 0.000000
-0.050000 -0.075000 0.000000
-0.050000 -0.050000 0.000000
-0.050000 -0.025000 0.000000
-0.050000 0.000000 0.000000
-0.050000 0.025000 0.000000
-0.050000 0.050000 0.000000
-0.050000 0.075000 0.000000
-0.050000 0.100000 0.000000
-0.050000 0.125000 0.000000
-0.050000 0.150000 0.000000
-0.050000 0.175000 0.000000
-0.050000 0.200000 0.000000
-0.050000 0.225000 0.000000
-0.050000 0.250000 0.000000
-0.050000 0.275000 0.000000
-0.050000 0.300000 0.000000
-0.050000 0.325000 0.000000
-0.050000 0.350000 0.000000
-0.050000 0.375000 0.000000
-0.050000 0.400000 0.000000
-0.050000 0.425000 0.000000
-0.050000 0.450000 0.000000
-0.050000 0.475000 0.000000
-0.050000 0.500000 0.000000
-0.050000 0.525000 0.000000
-0.050000 0.550000 0.000000
-0.050000 0.575000 0.000000
-0.050000 0.600000 0.000000
-0.025000 -0.075000 0.000000
-0.025000 -0.050000 0.000000
-0.025000 -0.025000 0.000000
-0.025000 0.000000 0.000000
-0.025000 0.025000 0.000000
-0.025000 0.050000 0.000000
-0.025000 0.075000 0.000000
-0.025000 0.100000 0.000000
-0.025000 0.125000 0.000000
-0.025000 0.150000 0.000000
-0.025000 0.175000 0.000000
-0.025000 0.200000 0.000000
-0.025000 0.225000 0.000000
-0.025000 0.250000 0.000000
-0.025000 0.275000 0.000000
-0.025000 0.300000 0.000000
-0.025000 0.325000 0.000000
-0.025000 0.350000 0.000000
-0.025000 0.375000 0.000000
-0.025000 0.400000 0.000000
-0.025000 0.425000 0.000000
-0.025000 0.450000 0.000000
-0.025000 0.475000 0.000000
-0.025000 0.500000 0.000000
-0.025000 0.525000 0.000000
-0.025000 0.550000 0.000000
-0.025000 0.575000 0.000000
-0.025000 0.600000 0.000000
0.000000 -0.075000 0.000000
0.000000 -0.050000 0.000000
0.000000 -0.025000 0.000000
0.000000 0.000000 0.000000
0.000000 0.025000 0.000000
0.000000 0.050000 0.000000
0.000000 0.075000 0.000000
0.000000 0.100000 0.000000
0.000000 0.125000 0.000000
0.000000 0.150000 0.000000
0.000000 0.175000 0.000000
0.000000 0.200000 0.000000
0.000000 0.225000 0.000000
0.000000 0.250000 0.000000
0.000000 0.275000 0.000000
0.000000 0.300000 0.000000
0.000000 0.325000 0.000000
0.000000 0.350000 0.000000
0.000000 0.375000 0.000000
0.000000 0.400000 0.000000
0.000000 0.425000 0.000000
0.000000 0.450000 0.000000
0.000000 0.475000 0.000000
0.000000 0.500000 0.000000
0.000000 0.525000 0.000000
0.000000 0.550000 0.000000
0.000000 0.575000 0.000000
0.000000 0.600000 0.000000
0.025000 -0.075000 0.000000
0.025000 -0.050000 0.000000
0.025000 -0.025000 0.000000
0.025000 0.000000 0.000000
0.286404 0.034686 0.000000
0.266316 0.023417 0.000000
0.267848 0.058032 0.000000
0.191000 0.019815 0.000000
0.378264 0.027014 0.000000
0.062529 0.020160 0.000000
0.464992 0.021013 0.000000
0.310347 0.021004 0.000000
0.227758 0.028337 0.000000
0.149735 0.042932 0.000000
0.311259 0.050458 0.000000
0.197205 0.048742 0.000000
0.158624 0.025897 0.000000
0.026732 0.026402 0.000000
0.022589 0.045785 0.000000
0.050694 0.038240 0.000000
0.108819 0.020983 0.000000
0.090450 0.037604 0.000000
0.096655 0.049642 0.000000
0.134454 0.026751 0.000000
0.050000 -0.075000 0.000000
0.050000 -0.050000 0.000000
0.050000 -0.025000 0.000000
0.050000 0.000000 0.000000
0.358340 0.028141 0.000000
0.498513 0.129431 0.000000
0.491281 0.114423 0.000000
0.299167 0.185989 0.000000
0.378220 0.150029 0.000000
0.637538 0.044982 0.000000
0.461402 0.101386 0.000000
0.755949 0.053046 0.000000
0.401629 0.025661 0.000000
0.431301 0.079494 0.000000
0.337953 0.114359 0.000000
0.455361 0.052666 0.000000
0.059880 0.052605 0.000000
0.449680 0.075557 0.000000
0.280582 0.056611 0.000000
0.312455 0.068347 0.000000
0.212775 0.042825 0.000000
0.335683 0.024388 0.000000
0.127004 0.054434 0.000000
0.183487 0.046893 0.000000
0.075000 -0.075000 0.000000
0.075000 -0.050000 0.000000
0.075000 -0.025000 0.000000
0.075000 0.000000 0.000000
0.394658 0.083178 0.000000
0.459056 0.139089 0.000000
0.534568 0.021728 0.000000
0.509654 0.027624 0.000000
0.789779 0.098288 0.000000
0.825563 0.028551 0.000000
0.821359 0.060104 0.000000
0.138615 0.102439 0.000000
0.772202 0.084596 0.000000
0.800246 0.050669 0.000000
0.628198 0.021311 0.000000
0.483511 0.088335 0.000000
0.330917 0.074245 0.000000
0.385405 0.052320 0.000000
0.423370 0.027787 0.000000
0.375566 0.063388 0.000000
0.338484 0.049871 0.000000
0.328568 0.098333 0.000000
0.360625 0.112315 0.000000
0.244515 0.027352 0.000000
0.100000 -0.075000 0.000000
0.100000 -0.050000 0.000000
0.100000 -0.025000 0.000000
0.100000 0.000000 0.000000
0.674832 0.025086 0.000000
0.600738 0.024646 0.000000
0.721078 0.076866 0.000000
0.901780 0.026329 0.000000
0.421501 0.055912 0.000000
0.879880 0.022976 0.000000
0.854558 0.091217 0.000000
0.599777 0.147400 0.000000
0.848019 0.024363 0.000000
0.843400 0.046486 0.000000
0.653151 0.031999 0.000000
0.667901 0.058162 0.000000
0.806178 0.080536 0.000000
0.781383 0.032582 0.000000
0.509915 0.082446 0.000000
0.442837 0.027652 0.000000
0.704776 0.023113 0.000000
0.714708 0.130729 0.000000
0.571487 0.042020 0.000000
0.496321 0.051747 0.000000
0.125000 -0.075000 0.000000
0.125000 -0.050000 0.000000
0.125000 -0.025000 0.000000
0.125000 0.000000 0.000000
0.886721 0.056736 0.000000
0.918144 0.108830 0.000000
1.001868 0.117699 0.000000
0.935123 0.023332 0.000000
0.903999 0.181883 0.000000
0.759861 0.020981 0.000000
0.615330 0.083504 0.000000
0.832931 0.127465 0.000000
0.922144 0.085903 0.000000
0.878232 0.107350 0.000000
0.948508 0.077247 0.000000
0.758840 0.191924 0.000000
0.685525 0.044292 0.000000
0.732520 0.064542 0.000000
0.538829 0.049543 0.000000
0.772148 0.060506 0.000000
0.726465 0.113854 0.000000
0.438319 0.123274 0.000000
0.693406 0.066573 0.000000
0.387028 0.119575 0.000000
0.150000 -0.075000 0.000000
0.150000 -0.050000 0.000000
0.150000 -0.025000 0.000000
0.150000 0.000000 0.000000
0.639504 0.128835 0.000000
1.003251 0.036879 0.000000
0.936582 0.221958 0.000000
0.580967 0.073003 0.000000
0.975424 0.053875 0.000000
0.406956 0.143091 0.000000
0.978872 0.105967 0.000000
0.707448 0.099266 0.000000
1.002278 0.088598 0.000000
0.951206 0.136410 0.000000
0.954407 0.047236 0.000000
0.869121 0.046100 0.000000
0.917314 0.041455 0.000000
0.931372 0.059120 0.000000
0.885357 0.087391 0.000000
0.807110 0.109274 0.000000
0.800786 0.025172 0.000000
0.838862 0.104388 0.000000
0.827756 0.081127 0.000000
0.634461 0.072201 0.000000
0.175000 -0.075000 0.000000
0.175000 -0.050000 0.000000
0.175000 -0.025000 0.000000
0.175000 0.000000 0.000000
0.316583 0.117897 0.000000
0.929823 0.160753 0.000000
0.963141 0.169115 0.000000
0.992976 0.137464 0.000000
0.969336 0.131151 0.000000
0.474869 0.133513 0.000000
0.959341 0.024437 0.000000
0.651365 0.156221 0.000000
0.553569 0.062036 0.000000
0.988376 0.022311 0.000000
0.836009 0.151605 0.000000
0.914142 0.133705 0.000000
0.745275 0.181704 0.000000
0.956908 0.098961 0.000000
0.975445 0.077361 0.000000
0.612079 0.058092 0.000000
0.996807 0.064816 0.000000
0.758665 0.108265 0.000000
0.672431 0.119601 0.000000
0.769410 0.168350 0.000000
0.200000 -0.075000 0.000000
0.200000 -0.050000 0.000000
0.200000 -0.025000 0.000000
0.200000 0.000000 0.000000
0.696153 0.132313 0.000000
0.418248 0.155025 0.000000
0.596624 0.094472 0.000000
0.954386 0.180223 0.000000
0.558757 0.081788 0.000000
0.740978 0.141480 0.000000
0.816783 0.144309 0.000000
0.976360 0.234692 0.000000
0.779256 0.129611 0.000000
0.407605 0.092931 0.000000
1.000501 0.163096 0.000000
0.906839 0.071562 0.000000
0.171523 0.097060 0.000000
0.687932 0.086536 0.000000
0.864331 0.129464 0.000000
0.518821 0.095866 0.000000
0.890871 0.147932 0.000000
0.677776 0.105876 0.000000
0.940840 0.117994 0.000000
0.864922 0.073173 0.000000
0.225000 -0.075000 0.000000
0.225000 -0.050000 0.000000
0.225000 -0.025000 0.000000
0.225000 0.000000 0.000000
0.641455 0.168460 0.000000
0.936761 0.926933 0.000000
0.876788 0.158838 0.000000
0.379572 0.098663 0.000000
0.352387 0.081855 0.000000
0.172004 0.122638 0.000000
0.801332 0.139032 0.000000
0.985902 0.165725 0.000000
0.873875 0.181758 0.000000
0.538417 0.094883 0.000000
0.929662 0.174781 0.000000
0.382189 0.165705 0.000000
0.517324 0.049760 0.000000
0.748159 0.089781 0.000000
0.442388 0.138648 0.000000
0.620985 0.102582 0.000000
0.721328 0.040634 0.000000
0.293230 0.163126 0.000000
0.513342 0.149249 0.000000
0.543115 0.156868 0.000000
0.250000 -0.075000 0.000000
0.250000 -0.050000 0.000000
0.250000 -0.025000 0.000000
0.250000 0.000000 0.000000
0.931052 0.441616 0.000000
0.695093 0.374340 0.000000
0.652680 0.081383 0.000000
0.656495 0.168374 0.000000
0.479487 0.532888 0.000000
0.756914 0.129240 0.000000
0.524038 0.292672 0.000000
0.575620 0.108317 0.000000
0.486522 0.034946 0.000000
0.854185 0.148637 0.000000
0.474625 0.071285 0.000000
0.259073 0.205027 0.000000
0.543258 0.113767 0.000000
0.734579 0.027944 0.000000
0.594912 0.044877 0.000000
0.561425 0.126520 0.000000
0.567989 0.021199 0.000000
0.898279 0.120849 0.000000
0.272495 0.190463 0.000000
0.894584 0.190165 0.000000
0.275000 -0.075000 0.000000
0.275000 -0.050000 0.000000
0.275000 -0.025000 0.000000
0.275000 0.000000 0.000000
0.300000 -0.075000 0.000000
0.300000 -0.050000 0.000000
0.300000 -0.025000 0.000000
0.300000 0.000000 0.000000
0.325000 -0.075000 0.000000
0.325000 -0.050000 0.000000
0.325000 -0.025000 0.000000
0.325000 0.000000 0.000000
0.350000 -0.075000 0.000000
0.350000 -0.050000 0.000000
0.350000 -0.025000 0.000000
0.350000 0.000000 0.000000
0.375000 -0.075000 0.000000
0.375000 -0.050000 0.000000
0.375000 -0.025000 0.000000
0.375000 0.000000 0.000000
0.400000 -0.075000 0.000000
0.400000 -0.050000 0.000000
0.400000 -0.025000 0.000000
0.400000 0.000000 0.000000
0.425000 -0.075000 0.000000
0.425000 -0.050000 0.000000
0.425000 -0.025000 0.000000
0.425000 0.000000 0.000000
0.450000 -0.075000 0.000000
0.450000 -0.050000 0.000000
0.450000 -0.025000 0.000000
0.450000 0.000000 0.000000
0.475000 -0.075000 0.000000
0.475000 -0.050000 0.000000
0.475000 -0.025000 0.000000
0.475000 0.000000 0.000000
0.500000 -0.075000 0.000000
0.500000 -0.050000 0.000000
0.500000 -0.025000 0.000000
0.500000 0.000000 0.000000
0.525000 -0.075000 0.000000
0.525000 -0.050000 0.000000
0.525000 -0.025000 0.000000
0.525000 0.000000 0.000000
0.550000 -0.075000 0.000000
0.550000 -0.050000 0.000000
0.550000 -0.025000 0.000000
0.550000 0.000000 0.000000
0.575000 -0.075000 0.000000
0.575000 -0.050000 0.000000
0.575000 -0.025000 0.000000
0.575000 0.000000 0.000000
0.600000 -0.075000 0.000000
0.600000 -0.050000 0.000000
0.600000 -0.025000 0.000000
0.600000 0.000000 0.000000
0.625000 -0.075000 0.000000
0.625000 -0.050000 0.000000
0.625000 -0.025000 0.000000
0.625000 0.000000 0.000000
0.650000 -0.075000 0.000000
0.650000 -0.050000 0.000000
0.650000 -0.025000 0.000000
0.650000 0.000000 0.000000
0.675000 -0.075000 0.000000
0.675000 -0.050000 0.000000
0.675000 -0.025000 0.000000
0.675000 0.000000 0.000000
0.700000 -0.075000 0.000000
0.700000 -0.050000 0.000000
0.700000 -0.025000 0.000000
0.700000 0.000000 0.000000
0.725000 -0.075000 0.000000
0.725000 -0.050000 0.000000
0.725000 -0.025000 0.000000
0.725000 0.000000 0.000000
0.750000 -0.075000 0.000000
0.750000 -0.050000 0.000000
0.750000 -0.025000 0.000000
0.750000 0.000000 0.000000
0.775000 -0.075000 0.000000
0.775000 -0.050000 0.000000
0.775000 -0.025000 0.000000
0.775000 0.000000 0.000000
0.800000 -0.075000 0.000000
0.800000 -0.050000 0.000000
0.800000 -0.025000 0.000000
0.800000 0.000000 0.000000
0.825000 -0.075000 0.000000
0.825000 -0.050000 0.000000
0.825000 -0.025000 0.000000
0.825000 0.000000 0.000000
0.850000 -0.075000 0.000000
0.850000 -0.050000 0.000000
0.850000 -0.025000 0.000000
0.850000 0.000000 0.000000
0.875000 -0.075000 0.000000
0.875000 -0.050000 0.000000
0.875000 -0.025000 0.000000
0.875000 0.000000 0.000000
0.900000 -0.075000 0.000000
0.900000 -0.050000 0.000000
0.900000 -0.025000 0.000000
0.900000 0.000000 0.000000
0.925000 -0.075000 0.000000
0.925000 -0.050000 0.000000
0.925000 -0.025000 0.000000
0.925000 0.000000 0.000000
0.950000 -0.075000 0.000000
0.950000 -0.050000 0.000000
0.950000 -0.025000 0.000000
0.950000 0.000000 0.000000
0.975000 -0.075000 0.000000
0.975000 -0.050000 0.000000
0.975000 -0.025000 0.000000
0.975000 0.000000 0.000000
1.000000 -0.075000 0.000000
1.000000 -0.050000 0.000000
1.000000 -0.025000 0.000000
1.000000 0.000000 0.000000
1.025000 -0.075000 0.000000
1.025000 -0.050000 0.000000
1.025000 -0.025000 0.000000
1.025000 0.000000 0.000000
1.025000 0.025000 0.000000
1.025000 0.050000 0.000000
1.025000 0.075000 0.000000
1.025000 0.100000 0.000000
1.025000 0.125000 0.000000
1.025000 0.150000 0.000000
1.025000 0.175000 0.000000
1.025000 0.200000 0.000000
1.025000 0.225000 0.000000
1.025000 0.250000 0.000000
1.025000 0.275000 0.000000
1.025000 0.300000 0.000000
1.025000 0.325000 0.000000
1.025000 0.350000 0.000000
1.025000 0.375000 0.000000
1.025000 0.400000 0.000000
1.025000 0.425000 0.000000
1.025000 0.450000 0.000000
1.025000 0.475000 0.000000
1.025000 0.500000 0.000000
1.025000 0.525000 0.000000
1.025000 0.550000 0.000000
1.025000 0.575000 0.000000
1.025000 0.600000 0.000000
1.050000 -0.075000 0.000000
1.050000 -0.050000 0.000000
1.050000 -0.025000 0.000000
1.050000 0.000000 0.000000
1.050000 0.025000 0.000000
1.050000 0.050000 0.000000
1.050000 0.075000 0.000000
1.050000 0.100000 0.000000
1.050000 0.125000 0.000000
1.050000 0.150000 0.000000
1.050000 0.175000 0.000000
1.050000 0.200000 0.000000
1.050000 0.225000 0.000000
1.050000 0.250000 0.000000
1.050000 0.275000 0.000000
1.050000 0.300000 0.000000
1.050000 0.325000 0.000000
1.050000 0.350000 0.000000
1.050000 0.375000 0.000000
1.050000 0.400000 0.000000
1.050000 0.425000 0.000000
1.050000 0.450000 0.000000
1.050000 0.475000 0.000000
1.050000 0.500000 0.000000
1.050000 0.525000 0.000000
1.050000 0.550000 0.000000
1.050000 0.575000 0.000000
1.050000 0.600000 0.000000
1.075000 -0.075000 0.000000
1.075000 -0.050000 0.000000
1.075000 -0.025000 0.000000
1.075000 0.000000 0.000000
1.075000 0.025000 0.000000
1.075000 0.050000 0.000000
1.075000 0.075000 0.000000
1.075000 0.100000 0.000000
1.075000 0.125000 0.000000
1.075000 0.150000 0.000000
1.075000 0.175000 0.000000
1.075000 0.200000 0.000000
1.075000 0.225000 0.000000
1.075000 0.250000 0.000000
1.075000 0.275000 0.000000
1.075000 0.300000 0.000000
1.075000 0.325000 0.000000
1.075000 0.350000 0.000000
1.075000 0.375000 0.000000
1.075000 0.400000 0.000000
1.075000 0.425000 0.000000
1.075000 0.450000 0.000000
1.075000 0.475000 0.000000
1.075000 0.500000 0.000000
1.075000 0.525000 0.000000
1.075000 0.550000 0.000000
1.075000 0.575000 0.000000
1.075000 0.600000 0.000000
1.100000 -0.075000 0.000000
1.100000 -0.050000 0.000000
1.100000 -0.025000 0.000000
1.100000 0.000000 0.000000
1.100000 0.025000 0.000000
1.100000 0.050000 0.000000
1.100000 0.075000 0.000000
1.100000 0.100000 0.000000
1.100000 0.125000 0.000000
1.100000 0.150000 0.000000
1.100000 0.175000 0.000000
1.100000 0.200000 0.000000
1.100000 0.225000 0.000000
1.100000 0.250000 0.000000
1.100000 0.275000 0.000000
1.100000 0.300000 0.000000
1.100000 0.325000 0.000000
1.100000 0.350000 0.000000
1.100000 0.375000 0.000000
1.100000 0.400000 0.000000
1.100000 0.425000 0.000000
1.100000 0.450000 0.000000
1.100000 0.475000 0.000000
1.100000 0.500000 0.000000
1.100000 0.525000 0.000000
1.100000 0.550000 0.000000
1.100000 0.575000 0.000000
1.100000 0.600000 0.000000
</DataArray>
</Points>
<PointData>
<DataArray NumberOfComponents='1' type='Int32' Name='ParticleType' format='ascii'>
3
3
3
3
3
3
3
3
3
3
3
3
3
3
3
3
3
3
3
3
3
3
3
3
3
3
2
2
3
3
3
3
3
3
3
3
3
3
3
3
3
3
3
3
3
3
3
3
3
3
3
3
3
3
2
2
3
3
2
2
2
2
2
2
2
2
2
2
2
2
2
2
2
2
2
2
2
2
2
2
2
2
2
2
3
3
2
2
2
2
2
2
2
2
2
2
2
2
2
2
2
2
2
2
2
2
2
2
2
2
2
2
3
3
2
2
0
0
0
0
0
0
0
0
0
0
0
0
0
0
0
0
0
0
0
0
3
3
2
2
0
0
0
0
0
0
0
0
0
0
0
0
0
0
0
0
0
0
0
0
3
3
2
2
0
0
0
0
0
0
0
0
0
0
0
0
0
0
0
0
0
0
0
0
3
3
2
2
0
0
0
0
0
0
0
0
0
0
0
0
0
0
0
0
0
0
0
0
3
3
2
2
0
0
0
0
0
0
0
0
0
0
0
0
0
0
0
0
0
0
0
0
3
3
2
2
0
0
0
0
0
0
0
0
0
0
0
0
0
0
0
0
0
0
0
0
3
3
2
2
0
0
0
0
0
0
0
0
0
0
0
0
0
0
0
0
0
0
0
0
3
3
2
2
0
0
0
0
0
0
0
0
0
0
0
0
0
0
0
0
0
0
0
0
3
3
2
2
0
0
0
0
0
0
0
0
0
0
0
0
0
0
0
0
0
0
0
0
3
3
2
2
0
0
0
0
0
0
0
0
0
0
0
0
0
0
0
0
0
0
0
0
3
3
2
2
3
3
2
2
3
3
2
2
3
3
2
2
3
3
2
2
3
3
2
2
3
3
2
2
3
3
2
2
3
3
2
2
3
3
2
2
3
3
2
2
3
3
2
2
3
3
2
2
3
3
2
2
3
3
2
2
3
3
2
2
3
3
2
2
3
3
2
2
3
3
2
2
3
3
2
2
3
3
2
2
3
3
2
2
3
3
2
2
3
3
2
2
3
3
2
2
3
3
2
2
3
3
2
2
3
3
2
2
3
3
2
2
3
3
2
2
3
3
2
2
2
2
2
2
2
2
2
2
2
2
2
2
2
2
2
2
2
2
2
2
2
2
2
2
3
3
2
2
2
2
2
2
2
2
2
2
2
2
2
2
2
2
2
2
2
2
2
2
2
2
2
2
3
3
3
3
3
3
3
3
3
3
3
3
3
3
3
3
3
3
3
3
3
3
3
3
3
3
2
2
3
3
3
3
3
3
3
3
3
3
3
3
3
3
3
3
3
3
3
3
3
3
3
3
3
3
2
2
</DataArray>
<DataArray NumberOfComponents='1' type='Float32' Name='Velocity' format='ascii'>
0.000000
0.000000
0.000000
0.000000
0.000000
0.000000
0.000000
0.000000
0.000000
0.000000
0.000000
0.000000
0.000000
0.000000
0.000000
0.000000
0.000000
0.000000
0.000000
0.000000
0.000000
0.000000
0.000000
0.000000
0.000000
0.000000
0.000000
0.000000
0.000000
0.000000
0.000000
0.000000
0.000000
0.000000
0.000000
0.000000
0.000000
0.000000
0.000000
0.000000
0.000000
0.000000
0.000000
0.000000
0.000000
0.000000
0.000000
0.000000
0.000000
0.000000
0.000000
0.000000
0.000000
0.000000
0.000000
0.000000
0.000000
0.000000
0.000000
0.000000
0.000000
0.000000
0.000000
0.000000
0.000000
0.000000
0.000000
0.000000
0.000000
0.000000
0.000000
0.000000
0.000000
0.000000
0.000000
0.000000
0.000000
0.000000
0.000000
0.000000
0.000000
0.000000
0.000000
0.000000
0.000000
0.000000
0.000000
0.000000
0.000000
0.000000
0.000000
0.000000
0.000000
0.000000
0.000000
0.000000
0.000000
0.000000
0.000000
0.000000
0.000000
0.000000
0.000000
0.000000
0.000000
0.000000
0.000000
0.000000
0.000000
0.000000
0.000000
0.000000
0.000000
0.000000
0.000000
0.000000
0.310306
0.299454
0.067909
0.101044
0.184740
0.208038
0.297398
0.282893
0.057259
0.069197
0.178590
0.218006
0.221919
0.170893
0.114770
0.130002
0.096453
0.083626
0.275124
0.283989
0.000000
0.000000
0.000000
0.000000
0.331958
1.336099
1.305617
2.295212
2.154709
0.142386
1.451960
0.428869
0.352083
0.325283
1.248524
0.579439
0.091355
0.126341
0.325397
0.952919
0.162994
0.398705
0.171084
0.177570
0.000000
0.000000
0.000000
0.000000
0.343530
1.649553
0.086580
0.772545
0.425230
0.103804
0.413854
2.870452
0.409649
0.381248
0.747537
1.529026
0.761727
0.236688
0.339062
0.327328
0.648016
1.543088
1.458760
0.062048
0.000000
0.000000
0.000000
0.000000
0.411874
0.263268
0.448514
0.227549
0.225171
0.054577
0.420060
2.070265
0.361713
0.204367
0.828566
0.807687
0.386471
0.432724
1.280593
0.060804
0.137271
1.011575
0.467735
0.247409
0.000000
0.000000
0.000000
0.000000
0.677998
0.147219
0.223611
0.253254
0.486335
0.155897
0.612281
0.681853
0.077727
0.278188
0.185211
0.222909
0.720041
0.524105
0.772328
0.385429
0.668057
1.426343
0.802477
1.640354
0.000000
0.000000
0.000000
0.000000
1.545175
0.403385
1.411512
1.182641
0.328698
1.800060
0.199566
0.968039
0.226104
0.127679
0.316023
0.228214
0.264151
0.431408
0.182256
0.884643
0.415433
0.296363
0.414581
0.668309
0.000000
0.000000
0.000000
0.000000
1.553226
0.629343
0.221307
0.471802
0.170380
1.626709
0.370401
2.313408
0.838792
0.247863
0.380846
0.233782
0.392663
0.169865
0.370169
0.814148
0.326512
0.853874
1.414073
0.590732
0.000000
0.000000
0.000000
0.000000
1.780477
1.575284
1.256345
0.482884
2.082098
1.200594
0.854933
1.382077
0.991450
1.199962
0.290108
0.508751
2.800627
0.596818
0.623751
1.015919
0.443451
0.815448
0.385866
0.714505
0.000000
0.000000
0.000000
0.000000
0.903059
2.709590
0.733233
1.701820
1.348251
2.804081
0.974537
0.375296
0.710170
1.631237
0.413087
1.196494
1.097935
1.002715
1.527110
1.671666
0.489005
2.743861
0.846589
1.074506
0.000000
0.000000
0.000000
0.000000
3.443198
3.431556
0.513996
1.706881
3.351458
1.335054
3.576383
2.589837
0.538688
0.713397
0.261946
2.565732
1.924024
0.385116
0.639402
2.548501
0.508839
0.292797
2.294951
0.661961
0.000000
0.000000
0.000000
0.000000
0.000000
0.000000
0.000000
0.000000
0.000000
0.000000
0.000000
0.000000
0.000000
0.000000
0.000000
0.000000
0.000000
0.000000
0.000000
0.000000
0.000000
0.000000
0.000000
0.000000
0.000000
0.000000
0.000000
0.000000
0.000000
0.000000
0.000000
0.000000
0.000000
0.000000
0.000000
0.000000
0.000000
0.000000
0.000000
0.000000
0.000000
0.000000
0.000000
0.000000
0.000000
0.000000
0.000000
0.000000
0.000000
0.000000
0.000000
0.000000
0.000000
0.000000
0.000000
0.000000
0.000000
0.000000
0.000000
0.000000
0.000000
0.000000
0.000000
0.000000
0.000000
0.000000
0.000000
0.000000
0.000000
0.000000
0.000000
0.000000
0.000000
0.000000
0.000000
0.000000
0.000000
0.000000
0.000000
0.000000
0.000000
0.000000
0.000000
0.000000
0.000000
0.000000
0.000000
0.000000
0.000000
0.000000
0.000000
0.000000
0.000000
0.000000
0.000000
0.000000
0.000000
0.000000
0.000000
0.000000
0.000000
0.000000
0.000000
0.000000
0.000000
0.000000
0.000000
0.000000
0.000000
0.000000
0.000000
0.000000
0.000000
0.000000
0.000000
0.000000
0.000000
0.000000
0.000000
0.000000
0.000000
0.000000
0.000000
0.000000
0.000000
0.000000
0.000000
0.000000
0.000000
0.000000
0.000000
0.000000
0.000000
0.000000
0.000000
0.000000
0.000000
0.000000
0.000000
0.000000
0.000000
0.000000
0.000000
0.000000
0.000000
0.000000
0.000000
0.000000
0.000000
0.000000
0.000000
0.000000
0.000000
0.000000
0.000000
0.000000
0.000000
0.000000
0.000000
0.000000
0.000000
0.000000
0.000000
0.000000
0.000000
0.000000
0.000000
0.000000
0.000000
0.000000
0.000000
0.000000
0.000000
0.000000
0.000000
0.000000
0.000000
0.000000
0.000000
0.000000
0.000000
0.000000
0.000000
0.000000
0.000000
0.000000
0.000000
0.000000
0.000000
0.000000
0.000000
0.000000
0.000000
0.000000
0.000000
0.000000
0.000000
0.000000
0.000000
0.000000
0.000000
0.000000
0.000000
0.000000
0.000000
0.000000
0.000000
0.000000
0.000000
0.000000
0.000000
0.000000
0.000000
0.000000
0.000000
0.000000
0.000000
0.000000
0.000000
0.000000
0.000000
0.000000
0.000000
0.000000
0.000000
0.000000
0.000000
0.000000
0.000000
0.000000
0.000000
0.000000
</DataArray>
<DataArray NumberOfComponents='1' type='Float32' Name='pressure' format='ascii'>
0.000000
0.000000
0.000000
0.000000
0.000000
0.000000
0.000000
0.000000
0.000000
0.000000
0.000000
0.000000
0.000000
0.000000
0.000000
0.000000
0.000000
0.000000
0.000000
0.000000
0.000000
0.000000
0.000000
0.000000
0.000000
0.000000
0.000000
0.000000
0.000000
0.000000
0.000000
0.000000
0.000000
0.000000
0.000000
0.000000
0.000000
0.000000
0.000000
0.000000
0.000000
0.000000
0.000000
0.000000
0.000000
0.000000
0.000000
0.000000
0.000000
0.000000
0.000000
0.000000
0.000000
0.000000
0.000000
0.000000
0.000000
0.000000
0.000000
0.000000
0.000000
238.797638
0.000000
0.000000
0.000000
0.000000
0.000000
0.000000
0.000000
0.000000
0.000000
0.000000
0.000000
0.000000
0.000000
0.000000
0.000000
0.000000
0.000000
0.000000
0.000000
0.000000
0.000000
0.000000
0.000000
0.000000
0.000000
0.000000
0.000000
0.000000
0.000000
0.000000
0.000000
0.000000
0.000000
0.000000
0.000000
0.000000
0.000000
0.000000
0.000000
0.000000
0.000000
0.000000
0.000000
0.000000
0.000000
0.000000
0.000000
0.000000
0.000000
0.000000
0.000000
0.000000
0.000000
0.000000
0.000000
444.962158
0.000000
963.893982
967.204102
395.791107
0.000000
0.000000
575.255859
0.000000
0.000000
0.000000
5.143812
501.921692
0.000000
0.000000
0.000000
571.572815
0.000000
58.492035
0.000000
0.000000
658.280396
0.000000
0.000000
0.000000
0.000000
0.000000
0.000000
1782.053345
0.000000
309.768036
0.000000
0.000000
0.000000
0.000000
0.000000
0.000000
0.000000
0.000000
0.000000
0.000000
0.000000
0.000000
0.000000
0.000000
1291.472656
0.000000
3790.309326
0.000000
389.963898
2831.646484
1300.514160
1362.651855
874.563049
0.000000
0.000000
0.000000
1578.420776
0.000000
1320.823853
0.000000
21.042738
0.000000
0.000000
0.000000
0.000000
0.000000
0.000000
0.000000
1724.158081
593.208862
3147.018555
1516.999146
0.000000
1348.271240
0.000000
1484.854858
1059.739746
0.000000
1166.593018
0.000000
2863.396729
0.000000
0.000000
1771.267822
535.988281
750.804382
0.000000
0.000000
1207.635620
2542.654785
0.000000
0.000000
1062.062988
771.704712
1234.060669
1098.047974
1666.736816
624.930176
0.000000
1175.790405
4866.886719
1421.298218
494.931000
0.000000
829.787659
0.000000
1323.132812
1312.456177
948.438599
779.970459
0.000000
0.000000
0.000000
0.000000
0.000000
0.000000
105.973335
462.256256
0.000000
2108.093506
0.000000
0.000000
1466.973267
0.000000
1904.034912
802.439819
1399.638672
0.000000
1325.160034
1142.383423
1856.190552
2156.411133
357.558838
0.000000
2902.598145
0.000000
1275.031494
0.000000
0.000000
0.000000
1395.432983
0.000000
0.000000
0.000000
0.000000
908.000916
843.724487
0.000000
1158.758179
0.000000
2191.784668
1947.035034
0.000000
0.000000
0.000000
786.217712
1066.392456
1037.361328
1139.130371
417.514648
0.000000
0.000000
0.000000
0.000000
2055.797852
407.577881
0.000000
0.000000
0.000000
0.000000
1537.764771
0.000000
0.000000
0.000000
0.000000
0.000000
0.000000
146.636307
0.000000
2419.103516
0.000000
2649.199219
638.542969
1010.307739
308.280487
445.446716
0.000000
0.000000
0.000000
0.000000
0.000000
0.000000
300.796600
0.000000
0.000000
0.000000
0.000000
0.000000
0.000000
3250.359131
0.000000
0.000000
2254.718994
0.000000
292.501434
0.000000
313.591980
0.000000
0.000000
0.000000
0.000000
0.000000
268.974304
1520.948242
0.000000
0.000000
0.000000
0.000000
0.000000
0.000000
0.000000
0.000000
0.000000
0.000000
0.000000
0.000000
0.000000
551.692932
1962.806885
0.000000
2047.921509
775.626282
0.000000
0.000000
0.000000
0.000000
1295.677490
440.544617
0.000000
0.000000
2459.375488
1427.536499
0.000000
0.000000
2577.014648
2491.325195
0.000000
0.000000
330.763550
1219.491455
0.000000
0.000000
0.000000
0.000000
0.000000
0.000000
0.000000
0.000000
0.000000
0.000000
0.000000
856.985168
0.000000
0.000000
1640.147217
2637.815674
0.000000
0.000000
2258.270752
872.824829
0.000000
0.000000
675.614014
0.000000
0.000000
0.000000
2837.951660
805.164856
0.000000
0.000000
4248.359375
2065.126953
0.000000
0.000000
5020.950684
5119.558105
0.000000
0.000000
4120.885254
4149.669922
0.000000
0.000000
4623.772949
5089.862305
0.000000
0.000000
2004.105591
495.550964
0.000000
0.000000
1537.740723
341.480988
0.000000
0.000000
1783.574707
1463.403809
0.000000
0.000000
597.345703
417.444733
0.000000
0.000000
2406.143555
1679.882812
0.000000
0.000000
1837.374634
1440.651123
0.000000
0.000000
772.212097
164.750137
0.000000
0.000000
0.000000
0.000000
0.000000
0.000000
1201.611084
870.890747
0.000000
0.000000
2145.413086
2439.876221
0.000000
0.000000
1539.703369
1700.043823
0.000000
0.000000
2150.684326
1400.649536
0.000000
0.000000
2670.492676
2704.334473
0.000000
0.000000
2714.234863
1931.828735
0.000000
0.000000
2589.255859
1749.453125
0.000000
0.000000
2060.855957
1573.189941
1802.620361
1436.618774
1208.526855
2788.609375
1100.640137
0.000000
0.000000
0.000000
0.000000
0.000000
0.000000
0.000000
0.000000
0.000000
0.000000
0.000000
0.000000
0.000000
0.000000
0.000000
0.000000
0.000000
0.000000
0.000000
0.000000
0.000000
2034.395630
2046.239746
2639.175537
2489.039551
2090.722900
2414.730469
1447.109253
0.000000
0.000000
0.000000
0.000000
0.000000
0.000000
0.000000
0.000000
0.000000
0.000000
0.000000
0.000000
0.000000
0.000000
0.000000
0.000000
0.000000
0.000000
0.000000
0.000000
0.000000
0.000000
0.000000
0.000000
0.000000
0.000000
0.000000
0.000000
0.000000
0.000000
0.000000
0.000000
0.000000
0.000000
0.000000
0.000000
0.000000
0.000000
0.000000
0.000000
0.000000
0.000000
0.000000
0.000000
0.000000
0.000000
0.000000
0.000000
0.000000
0.000000
0.000000
0.000000
0.000000
0.000000
0.000000
0.000000
0.000000
0.000000
0.000000
0.000000
0.000000
0.000000
0.000000
0.000000
0.000000
0.000000
0.000000
0.000000
0.000000
0.000000
0.000000
0.000000
0.000000
0.000000
0.000000
</DataArray>
</PointData>
<Cells>
<DataArray type='Int32' Name='connectivity' format='ascii'>
0
1
2
3
4
5
6
7
8
9
10
11
12
13
14
15
16
17
18
19
20
21
22
23
24
25
26
27
28
29
30
31
32
33
34
35
36
37
38
39
40
41
42
43
44
45
46
47
48
49
50
51
52
53
54
55
56
57
58
59
60
61
62
63
64
65
66
67
68
69
70
71
72
73
74
75
76
77
78
79
80
81
82
83
84
85
86
87
88
89
90
91
92
93
94
95
96
97
98
99
100
101
102
103
104
105
106
107
108
109
110
111
112
113
114
115
116
117
118
119
120
121
122
123
124
125
126
127
128
129
130
131
132
133
134
135
136
137
138
139
140
141
142
143
144
145
146
147
148
149
150
151
152
153
154
155
156
157
158
159
160
161
162
163
164
165
166
167
168
169
170
171
172
173
174
175
176
177
178
179
180
181
182
183
184
185
186
187
188
189
190
191
192
193
194
195
196
197
198
199
200
201
202
203
204
205
206
207
208
209
210
211
212
213
214
215
216
217
218
219
220
221
222
223
224
225
226
227
228
229
230
231
232
233
234
235
236
237
238
239
240
241
242
243
244
245
246
247
248
249
250
251
252
253
254
255
256
257
258
259
260
261
262
263
264
265
266
267
268
269
270
271
272
273
274
275
276
277
278
279
280
281
282
283
284
285
286
287
288
289
290
291
292
293
294
295
296
297
298
299
300
301
302
303
304
305
306
307
308
309
310
311
312
313
314
315
316
317
318
319
320
321
322
323
324
325
326
327
328