<?xml version='1.0' encoding='UTF-8'?>
<VTKFile xmlns='VTK' byte_order='LittleEndian' version='0.1' type='UnstructuredGrid'>
<UnstructuredGrid>
<Piece NumberOfCells='584' NumberOfPoints='584'>
<Points>
<DataArray NumberOfComponents='3' type='Float32' Name='Position' format='ascii'>
-0.075000 -0.075000 0.000000
-0.075000 -0.050000 0.000000
-0.075000 -0.025000 0.000000
-0.075000 0.000000 0.000000
-0.075000 0.025000 0.000000
-0.075000 0.050000 0.000000
-0.075000 0.075000 0.000000
-0.075000 0.100000 0.000000
-0.075000 0.125000 0.000000
-0.075000 0.150000 0.000000
-0.075000 0.175000 0.000000
-0.075000 0.200000 0.000000
-0.075000 0.225000 0.000000
-0.075000 0.250000 0.000000
-0.075000 0.275000 0.000000
-0.075000 0.300000 0.000000
-0.075000 0.325000 0.000000
-0.075000 0.350000 0.000000
-0.075000 0.375000 0.000000
-0.075000 0.400000 0.000000
-0.075000 0.425000 0.000000
-0.075000 0.450000 0.000000
-0.075000 0.475000 0.000000
-0.075000 0.500000 0.000000
-0.075000 0.525000 0.000000
-0.075000 0.550000 0.000000
-0.075000 0.575000 0.000000
-0.075000 0.600000 0.000000
-0.050000 -0.075000 0.000000
-0.050000 -0.050000 0.000000
-0.050000 -0.025000 0.000000
-0.050000 0.000000 0.000000
-0.050000 0.025000 0.000000
-0.050000 0.050000 0.000000
-0.050000 0.075000 0.000000
-0.050000 0.100000 0.000000
-0.050000 0.125000 0.000000
-0.050000 0.150000 0.000000
-0.050000 0.175000 0.000000
-0.050000 0.200000 0.000000
-0.050000 0.225000 0.000000
-0.050000 0.250000 0.000000
-0.050000 0.275000 0.000000
-0.050000 0.300000 0.000000
-0.050000 0.325000 0.000000
-0.050000 0.350000 0.000000
-0.050000 0.375000 0.000000
-0.050000 0.400000 0.000000
-0.050000 0.425000 0.000000
-0.050000 0.450000 0.000000
-0.050000 0.475000 0.000000
-0.050000 0.500000 0.000000
-0.050000 0.525000 0.000000
-0.050000 0.550000 0.000000
-0.050000 0.575000 0.000000
-0.050000 0.600000 0.000000
-0.025000 -0.075000 0.000000
-0.025000 -0.050000 0.000000
-0.025000 -0.025000 0.000000
-0.025000 0.000000 0.000000
-0.025000 0.025000 0.000000
-0.025000 0.050000 0.000000
-0.025000 0.075000 0.000000
-0.025000 0.100000 0.000000
-0.025000 0.125000 0.000000
-0.025000 0.150000 0.000000
-0.025000 0.175000 0.000000
-0.025000 0.200000 0.000000
-0.025000 0.225000 0.000000
-0.025000 0.250000 0.000000
-0.025000 0.275000 0.000000
-0.025000 0.300000 0.000000
-0.025000 0.325000 0.000000
-0.025000 0.350000 0.000000
-0.025000 0.375000 0.000000
-0.025000 0.400000 0.000000
-0.025000 0.425000 0.000000
-0.025000 0.450000 0.000000
-0.025000 0.475000 0.000000
-0.025000 0.500000 0.000000
-0.025000 0.525000 0.000000
-0.025000 0.550000 0.000000
-0.025000 0.575000 0.000000
-0.025000 0.600000 0.000000
0.000000 -0.075000 0.000000
0.000000 -0.050000 0.000000
0.000000 -0.025000 0.000000
0.000000 0.000000 0.000000
0.000000 0.025000 0.000000
0.000000 0.050000 0.000000
0.000000 0.075000 0.000000
0.000000 0.100000 0.000000
0.000000 0.125000 0.000000
0.000000 0.150000 0.000000
0.000000 0.175000 0.000000
0.000000 0.200000 0.000000
0.000000 0.225000 0.000000
0.000000 0.250000 0.000000
0.000000 0.275000 0.000000
0.000000 0.300000 0.000000
0.000000 0.325000 0.000000
0.000000 0.350000 0.000000
0.000000 0.375000 0.000000
0.000000 0.400000 0.000000
0.000000 0.425000 0.000000
0.000000 0.450000 0.000000
0.000000 0.475000 0.000000
0.000000 0.500000 0.000000
0.000000 0.525000 0.000000
0.000000 0.550000 0.000000
0.000000 0.575000 0.000000
0.000000 0.600000 0.000000
0.025000 -0.075000 0.000000
0.025000 -0.050000 0.000000
0.025000 -0.025000 0.000000
0.025000 0.000000 0.000000
0.249112 0.026544 0.000000
0.221867 0.022468 0.000000
0.202648 0.032701 0.000000
0.145534 0.024881 0.000000
0.345996 0.029446 0.000000
0.066692 0.024465 0.000000
0.431923 0.022907 0.000000
0.274514 0.021984 0.000000
0.175062 0.021712 0.000000
0.149611 0.055295 0.000000
0.225641 0.051777 0.000000
0.169015 0.046767 0.000000
0.126770 0.028428 0.000000
0.036669 0.021349 0.000000
0.019325 0.038080 0.000000
0.029899 0.067621 0.000000
0.094755 0.022361 0.000000
0.073455 0.046805 0.000000
0.060994 0.060995 0.000000
0.106167 0.042433 0.000000
0.050000 -0.075000 0.000000
0.050000 -0.050000 0.000000
0.050000 -0.025000 0.000000
0.050000 0.000000 0.000000
0.302120 0.035065 0.000000
0.461538 0.069617 0.000000
0.586172 0.042852 0.000000
0.538902 0.052968 0.000000
0.570567 0.069417 0.000000
0.617976 0.050188 0.000000
0.480559 0.038601 0.000000
0.733816 0.081414 0.000000
0.367782 0.025157 0.000000
0.362219 0.063694 0.000000
0.507772 0.068010 0.000000
0.413791 0.068559 0.000000
0.049985 0.046933 0.000000
0.405100 0.023641 0.000000
0.215954 0.061684 0.000000
0.258773 0.044857 0.000000
0.163738 0.066766 0.000000
0.260832 0.070183 0.000000
0.107601 0.066788 0.000000
0.119343 0.060553 0.000000
0.075000 -0.075000 0.000000
0.075000 -0.050000 0.000000
0.075000 -0.025000 0.000000
0.075000 0.000000 0.000000
0.318860 0.020600 0.000000
0.503616 0.045292 0.000000
0.517831 0.022313 0.000000
0.469461 0.018762 0.000000
0.784207 0.065049 0.000000
0.810651 0.027872 0.000000
0.829470 0.027483 0.000000
0.628930 0.060350 0.000000
0.755022 0.038074 0.000000
0.742038 0.020804 0.000000
0.560384 0.023239 0.000000
0.432588 0.043940 0.000000
0.407333 0.047932 0.000000
0.333318 0.074713 0.000000
0.312258 0.055488 0.000000
0.273073 0.066345 0.000000
0.288748 0.049774 0.000000
0.451904 0.047614 0.000000
0.377618 0.067245 0.000000
0.193755 0.054172 0.000000
0.100000 -0.075000 0.000000
0.100000 -0.050000 0.000000
0.100000 -0.025000 0.000000
0.100000 0.000000 0.000000
0.593837 0.023964 0.000000
0.541964 0.028649 0.000000
0.776922 0.022377 0.000000
0.916496 0.028775 0.000000
0.384334 0.040139 0.000000
0.884292 0.022258 0.000000
0.923316 0.077215 0.000000
0.852770 0.088095 0.000000
0.854568 0.023266 0.000000
0.868812 0.042533 0.000000
0.617080 0.028677 0.000000
0.646577 0.018376 0.000000
0.768666 0.068452 0.000000
0.789566 0.039679 0.000000
0.666216 0.060525 0.000000
0.349066 0.052495 0.000000
0.706487 0.042305 0.000000
0.747238 0.074329 0.000000
0.522183 0.061511 0.000000
0.478084 0.059775 0.000000
0.125000 -0.075000 0.000000
0.125000 -0.050000 0.000000
0.125000 -0.025000 0.000000
0.125000 0.000000 0.000000
0.937153 0.059441 0.000000
0.888355 0.087267 0.000000
1.002109 0.155005 0.000000
0.962016 0.029175 0.000000
0.982648 0.210881 0.000000
0.670104 0.040044 0.000000
0.908960 0.142559 0.000000
0.964452 0.179962 0.000000
0.930554 0.104516 0.000000
0.908338 0.094081 0.000000
0.941858 0.143088 0.000000
0.905802 0.167594 0.000000
0.854080 0.125565 0.000000
0.721745 0.063968 0.000000
0.645706 0.050634 0.000000
0.725775 0.041595 0.000000
0.909627 0.127327 0.000000
0.574152 0.119901 0.000000
0.823076 0.069532 0.000000
0.578476 0.059742 0.000000
0.150000 -0.075000 0.000000
0.150000 -0.050000 0.000000
0.150000 -0.025000 0.000000
0.150000 0.000000 0.000000
0.900253 0.204784 0.000000
0.999943 0.104500 0.000000
0.971530 0.292256 0.000000
0.844337 0.285481 0.000000
1.000427 0.083755 0.000000
0.859830 0.324968 0.000000
0.968666 0.123413 0.000000
0.870230 0.165104 0.000000
0.991260 0.124943 0.000000
0.956971 0.213270 0.000000
0.981199 0.049180 0.000000
0.902169 0.040149 0.000000
0.938356 0.021562 0.000000
0.955420 0.052086 0.000000
0.901083 0.063711 0.000000
0.839273 0.079115 0.000000
0.812225 0.057238 0.000000
0.870001 0.067022 0.000000
0.848546 0.053818 0.000000
0.696179 0.020691 0.000000
0.175000 -0.075000 0.000000
0.175000 -0.050000 0.000000
0.175000 -0.025000 0.000000
0.175000 0.000000 0.000000
0.560792 0.183922 0.000000
0.999771 0.173226 0.000000
0.998757 0.259719 0.000000
1.005836 0.218208 0.000000
0.980194 0.189867 0.000000
0.901893 0.300215 0.000000
0.989901 0.021024 0.000000
0.930299 0.234237 0.000000
0.882352 0.229723 0.000000
1.005185 0.040087 0.000000
0.937254 0.251894 0.000000
0.979895 0.234585 0.000000
0.822419 0.134628 0.000000
0.973975 0.145522 0.000000
0.946850 0.111176 0.000000
0.901963 0.230098 0.000000
0.972042 0.095337 0.000000
0.927292 0.163988 0.000000
0.877729 0.125499 0.000000
0.927980 0.185975 0.000000
0.200000 -0.075000 0.000000
0.200000 -0.050000 0.000000
0.200000 -0.025000 0.000000
0.200000 0.000000 0.000000
0.827906 0.720331 0.000000
0.890822 0.257854 0.000000
0.888196 0.394945 0.000000
0.998272 0.305024 0.000000
0.893543 0.327915 0.000000
0.923323 0.349068 0.000000
0.959431 0.407768 0.000000
0.972002 0.353535 0.000000
0.933799 0.293398 0.000000
0.823120 0.210321 0.000000
1.000679 0.340363 0.000000
0.980855 0.069023 0.000000
0.759691 0.172776 0.000000
0.863100 0.208433 0.000000
0.932120 0.201829 0.000000
0.907134 0.251886 0.000000
0.973216 0.274694 0.000000
0.881963 0.182027 0.000000
0.957352 0.158616 0.000000
0.952987 0.081308 0.000000
0.225000 -0.075000 0.000000
0.225000 -0.050000 0.000000
0.225000 -0.025000 0.000000
0.225000 0.000000 0.000000
0.898701 0.387231 0.000000
0.955621 1.302595 0.000000
0.938188 0.326063 0.000000
0.783473 0.205150 0.000000
0.584135 0.191316 0.000000
0.785614 0.286971 0.000000
0.924246 0.390621 0.000000
0.996757 0.413057 0.000000
0.951218 0.359091 0.000000
0.873037 0.335214 0.000000
0.985969 0.359674 0.000000
0.832040 0.308369 0.000000
0.604280 0.123501 0.000000
0.783279 0.090015 0.000000
0.884452 0.310275 0.000000
0.915547 0.305112 0.000000
0.804099 0.190311 0.000000
0.849304 0.204568 0.000000
0.862092 0.176904 0.000000
0.866886 0.139165 0.000000
0.250000 -0.075000 0.000000
0.250000 -0.050000 0.000000
0.250000 -0.025000 0.000000
0.250000 0.000000 0.000000
0.960271 1.022480 0.000000
0.802977 0.946312 0.000000
0.797148 0.410836 0.000000
0.875446 0.455977 0.000000
0.670901 1.068779 0.000000
0.905292 0.543563 0.000000
0.691674 0.897141 0.000000
0.774068 0.735476 0.000000
0.630228 0.304481 0.000000
0.939540 0.364375 0.000000
0.746132 0.128183 0.000000
0.807281 0.289519 0.000000
0.868756 0.353225 0.000000
0.685106 0.051752 0.000000
0.821922 0.246316 0.000000
0.870774 0.103477 0.000000
0.682421 0.260540 0.000000
0.952189 0.234489 0.000000
0.819319 0.233456 0.000000
0.979816 0.255605 0.000000
0.275000 -0.075000 0.000000
0.275000 -0.050000 0.000000
0.275000 -0.025000 0.000000
0.275000 0.000000 0.000000
0.300000 -0.075000 0.000000
0.300000 -0.050000 0.000000
0.300000 -0.025000 0.000000
0.300000 0.000000 0.000000
0.325000 -0.075000 0.000000
0.325000 -0.050000 0.000000
0.325000 -0.025000 0.000000
0.325000 0.000000 0.000000
0.350000 -0.075000 0.000000
0.350000 -0.050000 0.000000
0.350000 -0.025000 0.000000
0.350000 0.000000 0.000000
0.375000 -0.075000 0.000000
0.375000 -0.050000 0.000000
0.375000 -0.025000 0.000000
0.375000 0.000000 0.000000
0.400000 -0.075000 0.000000
0.400000 -0.050000 0.000000
0.400000 -0.025000 0.000000
0.400000 0.000000 0.000000
0.425000 -0.075000 0.000000
0.425000 -0.050000 0.000000
0.425000 -0.025000 0.000000
0.425000 0.000000 0.000000
0.450000 -0.075000 0.000000
0.450000 -0.050000 0.000000
0.450000 -0.025000 0.000000
0.450000 0.000000 0.000000
0.475000 -0.075000 0.000000
0.475000 -0.050000 0.000000
0.475000 -0.025000 0.000000
0.475000 0.000000 0.000000
0.500000 -0.075000 0.000000
0.500000 -0.050000 0.000000
0.500000 -0.025000 0.000000
0.500000 0.000000 0.000000
0.525000 -0.075000 0.000000
0.525000 -0.050000 0.000000
0.525000 -0.025000 0.000000
0.525000 0.000000 0.000000
0.550000 -0.075000 0.000000
0.550000 -0.050000 0.000000
0.550000 -0.025000 0.000000
0.550000 0.000000 0.000000
0.575000 -0.075000 0.000000
0.575000 -0.050000 0.000000
0.575000 -0.025000 0.000000
0.575000 0.000000 0.000000
0.600000 -0.075000 0.000000
0.600000 -0.050000 0.000000
0.600000 -0.025000 0.000000
0.600000 0.000000 0.000000
0.625000 -0.075000 0.000000
0.625000 -0.050000 0.000000
0.625000 -0.025000 0.000000
0.625000 0.000000 0.000000
0.650000 -0.075000 0.000000
0.650000 -0.050000 0.000000
0.650000 -0.025000 0.000000
0.650000 0.000000 0.000000
0.675000 -0.075000 0.000000
0.675000 -0.050000 0.000000
0.675000 -0.025000 0.000000
0.675000 0.000000 0.000000
0.700000 -0.075000 0.000000
0.700000 -0.050000 0.000000
0.700000 -0.025000 0.000000
0.700000 0.000000 0.000000
0.725000 -0.075000 0.000000
0.725000 -0.050000 0.000000
0.725000 -0.025000 0.000000
0.725000 0.000000 0.000000
0.750000 -0.075000 0.000000
0.750000 -0.050000 0.000000
0.750000 -0.025000 0.000000
0.750000 0.000000 0.000000
0.775000 -0.075000 0.000000
0.775000 -0.050000 0.000000
0.775000 -0.025000 0.000000
0.775000 0.000000 0.000000
0.800000 -0.075000 0.000000
0.800000 -0.050000 0.000000
0.800000 -0.025000 0.000000
0.800000 0.000000 0.000000
0.825000 -0.075000 0.000000
0.825000 -0.050000 0.000000
0.825000 -0.025000 0.000000
0.825000 0.000000 0.000000
0.850000 -0.075000 0.000000
0.850000 -0.050000 0.000000
0.850000 -0.025000 0.000000
0.850000 0.000000 0.000000
0.875000 -0.075000 0.000000
0.875000 -0.050000 0.000000
0.875000 -0.025000 0.000000
0.875000 0.000000 0.000000
0.900000 -0.075000 0.000000
0.900000 -0.050000 0.000000
0.900000 -0.025000 0.000000
0.900000 0.000000 0.000000
0.925000 -0.075000 0.000000
0.925000 -0.050000 0.000000
0.925000 -0.025000 0.000000
0.925000 0.000000 0.000000
0.950000 -0.075000 0.000000
0.950000 -0.050000 0.000000
0.950000 -0.025000 0.000000
0.950000 0.000000 0.000000
0.975000 -0.075000 0.000000
0.975000 -0.050000 0.000000
0.975000 -0.025000 0.000000
0.975000 0.000000 0.000000
1.000000 -0.075000 0.000000
1.000000 -0.050000 0.000000
1.000000 -0.025000 0.000000
1.000000 0.000000 0.000000
1.025000 -0.075000 0.000000
1.025000 -0.050000 0.000000
1.025000 -0.025000 0.000000
1.025000 0.000000 0.000000
1.025000 0.025000 0.000000
1.025000 0.050000 0.000000
1.025000 0.075000 0.000000
1.025000 0.100000 0.000000
1.025000 0.125000 0.000000
1.025000 0.150000 0.000000
1.025000 0.175000 0.000000
1.025000 0.200000 0.000000
1.025000 0.225000 0.000000
1.025000 0.250000 0.000000
1.025000 0.275000 0.000000
1.025000 0.300000 0.000000
1.025000 0.325000 0.000000
1.025000 0.350000 0.000000
1.025000 0.375000 0.000000
1.025000 0.400000 0.000000
1.025000 0.425000 0.000000
1.025000 0.450000 0.000000
1.025000 0.475000 0.000000
1.025000 0.500000 0.000000
1.025000 0.525000 0.000000
1.025000 0.550000 0.000000
1.025000 0.575000 0.000000
1.025000 0.600000 0.000000
1.050000 -0.075000 0.000000
1.050000 -0.050000 0.000000
1.050000 -0.025000 0.000000
1.050000 0.000000 0.000000
1.050000 0.025000 0.000000
1.050000 0.050000 0.000000
1.050000 0.075000 0.000000
1.050000 0.100000 0.000000
1.050000 0.125000 0.000000
1.050000 0.150000 0.000000
1.050000 0.175000 0.000000
1.050000 0.200000 0.000000
1.050000 0.225000 0.000000
1.050000 0.250000 0.000000
1.050000 0.275000 0.000000
1.050000 0.300000 0.000000
1.050000 0.325000 0.000000
1.050000 0.350000 0.000000
1.050000 0.375000 0.000000
1.050000 0.400000 0.000000
1.050000 0.425000 0.000000
1.050000 0.450000 0.000000
1.050000 0.475000 0.000000
1.050000 0.500000 0.000000
1.050000 0.525000 0.000000
1.050000 0.550000 0.000000
1.050000 0.575000 0.000000
1.050000 0.600000 0.000000
1.075000 -0.075000 0.000000
1.075000 -0.050000 0.000000
1.075000 -0.025000 0.000000
1.075000 0.000000 0.000000
1.075000 0.025000 0.000000
1.075000 0.050000 0.000000
1.075000 0.075000 0.000000
1.075000 0.100000 0.000000
1.075000 0.125000 0.000000
1.075000 0.150000 0.000000
1.075000 0.175000 0.000000
1.075000 0.200000 0.000000
1.075000 0.225000 0.000000
1.075000 0.250000 0.000000
1.075000 0.275000 0.000000
1.075000 0.300000 0.000000
1.075000 0.325000 0.000000
1.075000 0.350000 0.000000
1.075000 0.375000 0.000000
1.075000 0.400000 0.000000
1.075000 0.425000 0.000000
1.075000 0.450000 0.000000
1.075000 0.475000 0.000000
1.075000 0.500000 0.000000
1.075000 0.525000 0.000000
1.075000 0.550000 0.000000
1.075000 0.575000 0.000000
1.075000 0.600000 0.000000
1.100000 -0.075000 0.000000
1.100000 -0.050000 0.000000
1.100000 -0.025000 0.000000
1.100000 0.000000 0.000000
1.100000 0.025000 0.000000
1.100000 0.050000 0.000000
1.100000 0.075000 0.000000
1.100000 0.100000 0.000000
1.100000 0.125000 0.000000
1.100000 0.150000 0.000000
1.100000 0.175000 0.000000
1.100000 0.200000 0.000000
1.100000 0.225000 0.000000
1.100000 0.250000 0.000000
1.100000 0.275000 0.000000
1.100000 0.300000 0.000000
1.100000 0.325000 0.000000
1.100000 0.350000 0.000000
1.100000 0.375000 0.000000
1.100000 0.400000 0.000000
1.100000 0.425000 0.000000
1.100000 0.450000 0.000000
1.100000 0.475000 0.000000
1.100000 0.500000 0.000000
1.100000 0.525000 0.000000
1.100000 0.550000 0.000000
1.100000 0.575000 0.000000
1.100000 0.600000 0.000000
</DataArray>
</Points>
<PointData>
<DataArray NumberOfComponents='1' type='Int32' Name='ParticleType' format='ascii'>
3
3
3
3
3
3
3
3
3
3
3
3
3
3
3
3
3
3
3
3
3
3
3
3
3
3
2
2
3
3
3
3
3
3
3
3
3
3
3
3
3
3
3
3
3
3
3
3
3
3
3
3
3
3
2
2
3
3
2
2
2
2
2
2
2
2
2
2
2
2
2
2
2
2
2
2
2
2
2
2
2
2
2
2
3
3
2
2
2
2
2
2
2
2
2
2
2
2
2
2
2
2
2
2
2
2
2
2
2
2
2
2
3
3
2
2
0
0
0
0
0
0
0
0
0
0
0
0
0
0
0
0
0
0
0
0
3
3
2
2
0
0
0
0
0
0
0
0
0
0
0
0
0
0
0
0
0
0
0
0
3
3
2
2
0
0
0
0
0
0
0
0
0
0
0
0
0
0
0
0
0
0
0
0
3
3
2
2
0
0
0
0
0
0
0
0
0
0
0
0
0
0
0
0
0
0
0
0
3
3
2
2
0
0
0
0
0
0
0
0
0
0
0
0
0
0
0
0
0
0
0
0
3
3
2
2
0
0
0
0
0
0
0
0
0
0
0
0
0
0
0
0
0
0
0
0
3
3
2
2
0
0
0
0
0
0
0
0
0
0
0
0
0
0
0
0
0
0
0
0
3
3
2
2
0
0
0
0
0
0
0
0
0
0
0
0
0
0
0
0
0
0
0
0
3
3
2
2
0
0
0
0
0
0
0
0
0
0
0
0
0
0
0
0
0
0
0
0
3
3
2
2
0
0
0
0
0
0
0
0
0
0
0
0
0
0
0
0
0
0
0
0
3
3
2
2
3
3
2
2
3
3
2
2
3
3
2
2
3
3
2
2
3
3
2
2
3
3
2
2
3
3
2
2
3
3
2
2
3
3
2
2
3
3
2
2
3
3
2
2
3
3
2
2
3
3
2
2
3
3
2
2
3
3
2
2
3
3
2
2
3
3
2
2
3
3
2
2
3
3
2
2
3
3
2
2
3
3
2
2
3
3
2
2
3
3
2
2
3
3
2
2
3
3
2
2
3
3
2
2
3
3
2
2
3
3
2
2
3
3
2
2
3
3
2
2
2
2
2
2
2
2
2
2
2
2
2
2
2
2
2
2
2
2
2
2
2
2
2
2
3
3
2
2
2
2
2
2
2
2
2
2
2
2
2
2
2
2
2
2
2
2
2
2
2
2
2
2
3
3
3
3
3
3
3
3
3
3
3
3
3
3
3
3
3
3
3
3
3
3
3
3
3
3
2
2
3
3
3
3
3
3
3
3
3
3
3
3
3
3
3
3
3
3
3
3
3
3
3
3
3
3
2
2
</DataArray>
<DataArray NumberOfComponents='1' type='Float32' Name='Velocity' format='ascii'>
0.000000
0.000000
0.000000
0.000000
0.000000
0.000000
0.000000
0.000000
0.000000
0.000000
0.000000
0.000000
0.000000
0.000000
0.000000
0.000000
0.000000
0.000000
0.000000
0.000000
0.000000
0.000000
0.000000
0.000000
0.000000
0.000000
0.000000
0.000000
0.000000
0.000000
0.000000
0.000000
0.000000
0.000000
0.000000
0.000000
0.000000
0.000000
0.000000
0.000000
0.000000
0.000000
0.000000
0.000000
0.000000
0.000000
0.000000
0.000000
0.000000
0.000000
0.000000
0.000000
0.000000
0.000000
0.000000
0.000000
0.000000
0.000000
0.000000
0.000000
0.000000
0.000000
0.000000
0.000000
0.000000
0.000000
0.000000
0.000000
0.000000
0.000000
0.000000
0.000000
0.000000
0.000000
0.000000
0.000000
0.000000
0.000000
0.000000
0.000000
0.000000
0.000000
0.000000
0.000000
0.000000
0.000000
0.000000
0.000000
0.000000
0.000000
0.000000
0.000000
0.000000
0.000000
0.000000
0.000000
0.000000
0.000000
0.000000
0.000000
0.000000
0.000000
0.000000
0.000000
0.000000
0.000000
0.000000
0.000000
0.000000
0.000000
0.000000
0.000000
0.000000
0.000000
0.000000
0.000000
0.098617
0.206813
0.162045
0.431908
0.442019
0.005225
0.640449
0.324526
0.439512
0.158969
0.436715
0.041457
0.487783
0.035392
0.076071
0.358010
0.145911
0.126636
0.251121
0.393566
0.000000
0.000000
0.000000
0.000000
0.345783
1.043172
0.905192
0.803613
0.956098
1.101153
1.034562
1.372920
0.398367
0.357478
0.897306
0.597920
0.117221
0.352815
0.234449
0.378500
0.308997
0.549722
0.159183
0.086451
0.000000
0.000000
0.000000
0.000000
0.233483
0.903663
0.692533
0.137978
1.152121
0.722009
0.822788
1.182041
0.155348
1.152357
0.851532
1.175712
0.173453
0.240558
0.691866
0.485258
0.371981
0.703667
0.689320
0.236473
0.000000
0.000000
0.000000
0.000000
0.928057
0.711227
0.479852
0.097231
0.550934
0.513191
0.392637
0.382214
0.715635
0.707040
1.175276
0.501734
0.397270
0.780898
0.991465
0.941229
0.860777
1.360637
0.788302
0.642554
0.000000
0.000000
0.000000
0.000000
0.184089
0.699798
0.144765
0.180986
0.122688
0.955597
0.908500
0.222159
0.473068
0.664837
0.368561
0.444299
0.561411
1.189544
0.773396
0.974144
1.010905
0.117754
0.580045
0.971825
0.000000
0.000000
0.000000
0.000000
1.036126
0.086409
0.904183
1.227900
0.196645
1.235345
0.343495
0.538686
0.518312
0.300009
0.100985
0.828418
0.213038
0.274174
0.632176
0.697640
0.905308
0.948561
0.789712
0.661453
0.000000
0.000000
0.000000
0.000000
2.112459
0.123714
0.357971
0.213575
0.178130
1.066351
0.208933
0.302236
0.543957
0.129554
0.252174
0.231077
0.998659
0.401764
0.040583
0.595383
0.577721
0.259917
0.595224
0.130848
0.000000
0.000000
0.000000
0.000000
1.056560
0.969221
1.115547
0.920760
1.075728
1.278176
0.888929
0.942341
0.953266
1.376761
0.868734
0.176892
1.888471
0.659729
0.273935
0.601123
0.426736
0.754212
0.038175
0.516649
0.000000
0.000000
0.000000
0.000000
1.001656
0.076022
0.976670
2.058892
1.931190
1.879771
1.445255
0.935335
1.013647
1.327917
1.025537
1.507960
2.155578
1.974011
1.128971
1.117612
1.503810
1.103431
0.760041
1.378639
0.000000
0.000000
0.000000
0.000000
0.705378
0.769299
1.614727
1.425433
0.869312
1.337468
0.984801
1.181132
2.014520
1.376642
2.059264
1.681682
1.283131
1.337860
1.655029
0.697088
1.661843
0.724247
0.742966
0.188015
0.000000
0.000000
0.000000
0.000000
0.000000
0.000000
0.000000
0.000000
0.000000
0.000000
0.000000
0.000000
0.000000
0.000000
0.000000
0.000000
0.000000
0.000000
0.000000
0.000000
0.000000
0.000000
0.000000
0.000000
0.000000
0.000000
0.000000
0.000000
0.000000
0.000000
0.000000
0.000000
0.000000
0.000000
0.000000
0.000000
0.000000
0.000000
0.000000
0.000000
0.000000
0.000000
0.000000
0.000000
0.000000
0.000000
0.000000
0.000000
0.000000
0.000000
0.000000
0.000000
0.000000
0.000000
0.000000
0.000000
0.000000
0.000000
0.000000
0.000000
0.000000
0.000000
0.000000
0.000000
0.000000
0.000000
0.000000
0.000000
0.000000
0.000000
0.000000
0.000000
0.000000
0.000000
0.000000
0.000000
0.000000
0.000000
0.000000
0.000000
0.000000
0.000000
0.000000
0.000000
0.000000
0.000000
0.000000
0.000000
0.000000
0.000000
0.000000
0.000000
0.000000
0.000000
0.000000
0.000000
0.000000
0.000000
0.000000
0.000000
0.000000
0.000000
0.000000
0.000000
0.000000
0.000000
0.000000
0.000000
0.000000
0.000000
0.000000
0.000000
0.000000
0.000000
0.000000
0.000000
0.000000
0.000000
0.000000
0.000000
0.000000
0.000000
0.000000
0.000000
0.000000
0.000000
0.000000
0.000000
0.000000
0.000000
0.000000
0.000000
0.000000
0.000000
0.000000
0.000000
0.000000
0.000000
0.000000
0.000000
0.000000
0.000000
0.000000
0.000000
0.000000
0.000000
0.000000
0.000000
0.000000
0.000000
0.000000
0.000000
0.000000
0.000000
0.000000
0.000000
0.000000
0.000000
0.000000
0.000000
0.000000
0.000000
0.000000
0.000000
0.000000
0.000000
0.000000
0.000000
0.000000
0.000000
0.000000
0.000000
0.000000
0.000000
0.000000
0.000000
0.000000
0.000000
0.000000
0.000000
0.000000
0.000000
0.000000
0.000000
0.000000
0.000000
0.000000
0.000000
0.000000
0.000000
0.000000
0.000000
0.000000
0.000000
0.000000
0.000000
0.000000
0.000000
0.000000
0.000000
0.000000
0.000000
0.000000
0.000000
0.000000
0.000000
0.000000
0.000000
0.000000
0.000000
0.000000
0.000000
0.000000
0.000000
0.000000
0.000000
0.000000
0.000000
0.000000
0.000000
0.000000
0.000000
0.000000
0.000000
0.000000
0.000000
0.000000
0.000000
0.000000
0.000000
0.000000
0.000000
</DataArray>
<DataArray NumberOfComponents='1' type='Float32' Name='pressure' format='ascii'>
0.000000
0.000000
0.000000
0.000000
0.000000
0.000000
0.000000
0.000000
0.000000
0.000000
0.000000
0.000000
0.000000
0.000000
0.000000
0.000000
0.000000
0.000000
0.000000
0.000000
0.000000
0.000000
0.000000
0.000000
0.000000
0.000000
0.000000
0.000000
0.000000
0.000000
0.000000
0.000000
0.000000
0.000000
0.000000
0.000000
0.000000
0.000000
0.000000
0.000000
0.000000
0.000000
0.000000
0.000000
0.000000
0.000000
0.000000
0.000000
0.000000
0.000000
0.000000
0.000000
0.000000
0.000000
0.000000
0.000000
0.000000
0.000000
1163.050293
1143.124634
2276.830078
1823.338501
0.000000
0.000000
0.000000
0.000000
0.000000
0.000000
0.000000
0.000000
0.000000
0.000000
0.000000
0.000000
0.000000
0.000000
0.000000
0.000000
0.000000
0.000000
0.000000
0.000000
0.000000
0.000000
0.000000
0.000000
1101.847656
721.240662
1134.653564
0.000000
0.000000
0.000000
0.000000
0.000000
0.000000
0.000000
0.000000
0.000000
0.000000
0.000000
0.000000
0.000000
0.000000
0.000000
0.000000
0.000000
0.000000
0.000000
0.000000
0.000000
0.000000
0.000000
0.000000
0.000000
1776.953247
489.617279
15.858383
473.479218
453.150574
359.968109
0.000000
1186.802734
2647.155029
0.000000
0.000000
0.000000
0.000000
21.291708
510.918213
843.081909
0.000000
0.000000
0.000000
0.000000
0.000000
0.000000
0.000000
0.000000
1545.118408
433.508850
1380.898804
0.000000
205.112457
0.000000
0.000000
383.571777
1256.723267
0.000000
1106.311768
974.558472
0.000000
0.000000
0.000000
1394.557739
0.000000
685.382446
0.000000
0.000000
0.000000
0.000000
0.000000
0.000000
790.052246
101.217743
0.000000
307.923706
0.000000
625.923279
2504.447021
1706.940063
0.000000
0.000000
0.000000
0.000000
0.000000
941.972046
0.000000
0.000000
0.000000
0.000000
0.000000
0.000000
0.000000
0.000000
0.000000
0.000000
748.097717
0.000000
0.000000
0.000000
0.000000
467.827332
1763.942017
834.805115
964.734497
1089.114868
27.869955
179.866348
0.000000
0.000000
1837.082397
132.019272
0.000000
200.461426
1101.127441
0.000000
0.000000
0.000000
0.000000
0.000000
0.000000
0.000000
371.696045
0.000000
0.000000
0.000000
251.367035
1296.334961
0.000000
4.377403
1045.175659
0.000000
0.000000
0.000000
0.000000
0.000000
0.000000
1259.753540
0.000000
0.000000
359.432465
0.000000
0.000000
0.000000
0.000000
28.247864
0.000000
756.045166
0.000000
0.000000
0.000000
0.000000
392.426056
4747.880371
0.000000
0.000000
915.426208
0.000000
0.000000
1269.699585
0.000000
2202.160156
944.527527
202.611603
883.312012
0.000000
0.000000
0.000000
1383.620850
311.818085
0.000000
0.000000
0.000000
0.000000
710.806274
0.000000
736.065430
466.600189
0.000000
754.526123
0.000000
224.929123
0.000000
243.884094
0.000000
0.000000
0.000000
915.074219
1803.769775
275.703735
0.000000
0.000000
0.000000
0.000000
0.000000
0.000000
0.000000
0.000000
0.000000
0.000000
0.000000
0.000000
0.000000
0.000000
0.000000
0.000000
0.000000
0.000000
0.000000
0.000000
0.000000
0.000000
948.257568
0.000000
0.000000
0.000000
1446.788818
492.182251
0.000000
0.000000
0.000000
0.000000
0.000000
0.000000
0.000000
0.000000
2565.656006
114.432610
0.000000
0.000000
0.000000
0.000000
0.000000
0.000000
0.000000
0.000000
0.000000
942.927124
0.000000
0.000000
374.437378
1222.163330
0.000000
0.000000
0.000000
0.000000
0.000000
0.000000
0.000000
0.000000
0.000000
324.622742
0.000000
0.000000
0.000000
0.000000
0.000000
0.000000
0.000000
0.000000
0.000000
523.869507
0.000000
0.000000
1843.732910
1271.509033
0.000000
0.000000
946.035156
0.000000
0.000000
0.000000
2008.960938
1249.129883
0.000000
0.000000
0.000000
0.000000
0.000000
0.000000
639.808716
0.000000
0.000000
0.000000
1944.885010
1146.022949
0.000000
0.000000
2904.945068
2761.470703
0.000000
0.000000
3774.786865
1440.267578
0.000000
0.000000
4561.892578
2627.195068
0.000000
0.000000
1516.945801
0.000000
0.000000
0.000000
1688.697632
430.959686
0.000000
0.000000
728.529114
1253.929321
0.000000
0.000000
32.934662
0.000000
0.000000
0.000000
484.368042
0.000000
0.000000
0.000000
1443.212280
0.000000
0.000000
0.000000
3896.059326
2432.762695
0.000000
0.000000
1613.308105
0.000000
0.000000
0.000000
2815.846680
0.000000
0.000000
0.000000
2136.559570
0.000000
0.000000
0.000000
3326.935303
3778.442871
0.000000
0.000000
2529.709961
3423.616211
0.000000
0.000000
0.000000
0.000000
0.000000
0.000000
0.000000
0.000000
0.000000
0.000000
1424.742920
2155.325928
0.000000
0.000000
2039.352783
2193.070312
0.000000
0.000000
1532.078247
228.481339
0.000000
0.000000
1999.650879
1949.208984
0.000000
0.000000
2130.398438
1410.701904
0.000000
0.000000
1964.720459
0.000000
0.000000
0.000000
2488.704346
1299.270020
0.000000
0.000000
1573.771606
1083.829712
1294.787476
284.145538
0.000000
0.000000
0.000000
0.000000
0.000000
0.000000
29.374664
0.000000
0.000000
0.000000
0.000000
0.000000
0.000000
0.000000
0.000000
0.000000
0.000000
0.000000
0.000000
0.000000
0.000000
0.000000
0.000000
0.000000
1610.390869
1600.578125
2460.383545
2548.329346
413.990112
0.000000
0.000000
163.961655
0.000000
1081.833618
2301.616211
0.000000
0.000000
0.000000
0.000000
0.000000
0.000000
0.000000
0.000000
0.000000
0.000000
0.000000
0.000000
0.000000
0.000000
0.000000
0.000000
0.000000
0.000000
0.000000
0.000000
0.000000
0.000000
0.000000
0.000000
0.000000
0.000000
0.000000
0.000000
0.000000
0.000000
0.000000
0.000000
0.000000
0.000000
0.000000
0.000000
0.000000
0.000000
0.000000
0.000000
0.000000
0.000000
0.000000
0.000000
0.000000
0.000000
0.000000
0.000000
0.000000
0.000000
0.000000
0.000000
0.000000
0.000000
0.000000
0.000000
0.000000
0.000000
0.000000
0.000000
0.000000
0.000000
0.000000
0.000000
0.000000
0.000000
0.000000
0.000000
0.000000
0.000000
0.000000
</DataArray>
</PointData>
<Cells>
<DataArray type='Int32' Name='connectivity' format='ascii'>
0
1
2
3
4
5
6
7
8
9
10
11
12
13
14
15
16
17
18
19
20
21
22
23
24
25
26
27
28
29
30
31
32
33
34
35
36
37
38
39
40
41
42
43
44
45
46
47
48
49
50
51
52
53
54
55
56
57
58
59
60
61
62
63
64
65
66
67
68
69
70
71
72
73
74
75
76
77
78
79
80
81
82
83
84
85
86
87
88
89
90
91
92
93
94
95
96
97
98
99
100
101
102
103
104
105
106
107
108
109
110
111
112
113
114
115
116
117
118
119
120
121
122
123
124
125
126
127
128
129
130
131
132
133
134
135
136
137
138
139
140
141
142
143
144
145
146
147
148
149
150
151
152
153
154
155
156
157
158
159
160
161
162
163
164
165
166
167
168
169
170
171
172
173
174
175
176
177
178
179
180
181
182
183
184
185
186
187
188
189
190
191
192
193
194
195
196
197
198
199
200
201
202
203
204
205
206
207
208
209
210
211
212
213
214
215
216
217
218
219
220
221
222
223
224
225
226
227
228
229
230
231
232
233
234
235
236
237
238
239
240
241
242
243
244
245
246
247
248
249
250
251
252
253
254
255
256
257
258
259
260
261
262
263
264
265
266
267
268
269
270
271
272
273
274
275
276
277
278
279
280
281
282
283
284
285
286
287
288
289
290
291
292
293
294
295
296
297
298
299
300
301
302
303
304
305
306
307
308
309
310
311
312
313
314
315
316
317
318
319
320
321
322
323
324
325
326
327
328
329
330
331
332
333
334
335
336
337
338
339
340
341
342
343
344
345
346
347
348