<?xml version='1.0' encoding='UTF-8'?>
<VTKFile xmlns='VTK' byte_order='LittleEndian' version='0.1' type='UnstructuredGrid'>
<UnstructuredGrid>
<Piece NumberOfCells='584' NumberOfPoints='584'>
<Points>
<DataArray NumberOfComponents='3' type='Float32' Name='Position' format='ascii'>
-0.075000 -0.075000 0.000000
-0.075000 -0.050000 0.000000
-0.075000 -0.025000 0.000000
-0.075000 0.000000 0.000000
-0.075000 0.025000 0.000000
-0.075000 0.050000 0.000000
-0.075000 0.075000 0.000000
-0.075000 0.100000 0.000000
-0.075000 0.125000 0.000000
-0.075000 0.150000 0.000000
-0.075000 0.175000 0.000000
-0.075000 0.200000 0.000000
-0.075000 0.225000 0.000000
-0.075000 0.250000 0.000000
-0.075000 0.275000 0.000000
-0.075000 0.300000 0.000000
-0.075000 0.325000 0.000000
-0.075000 0.350000 0.000000
-0.075000 0.375000 0.000000
-0.075000 0.400000 0.000000
-0.075000 0.425000 0.000000
-0.075000 0.450000 0.000000
-0.075000 0.475000 0.000000
-0.075000 0.500000 0.000000
-0.075000 0.525000 0.000000
-0.075000 0.550000 0.000000
-0.075000 0.575000 0.000000
-0.075000 0.600000 0.000000
-0.050000 -0.075000 0.000000
-0.050000 -0.050000 0.000000
-0.050000 -0.025000 0.000000
-0.050000 0.000000 0.000000
-0.050000 0.025000 0.000000
-0.050000 0.050000 0.000000
-0.050000 0.075000 0.000000
-0.050000 0.100000 0.000000
-0.050000 0.125000 0.000000
-0.050000 0.150000 0.000000
-0.050000 0.175000 0.000000
-0.050000 0.200000 0.000000
-0.050000 0.225000 0.000000
-0.050000 0.250000 0.000000
-0.050000 0.275000 0.000000
-0.050000 0.300000 0.000000
-0.050000 0.325000 0.000000
-0.050000 0.350000 0.000000
-0.050000 0.375000 0.000000
-0.050000 0.400000 0.000000
-0.050000 0.425000 0.000000
-0.050000 0.450000 0.000000
-0.050000 0.475000 0.000000
-0.050000 0.500000 0.000000
-0.050000 0.525000 0.000000
-0.050000 0.550000 0.000000
-0.050000 0.575000 0.000000
-0.050000 0.600000 0.000000
-0.025000 -0.075000 0.000000
-0.025000 -0.050000 0.000000
-0.025000 -0.025000 0.000000
-0.025000 0.000000 0.000000
-0.025000 0.025000 0.000000
-0.025000 0.050000 0.000000
-0.025000 0.075000 0.000000
-0.025000 0.100000 0.000000
-0.025000 0.125000 0.000000
-0.025000 0.150000 0.000000
-0.025000 0.175000 0.000000
-0.025000 0.200000 0.000000
-0.025000 0.225000 0.000000
-0.025000 0.250000 0.000000
-0.025000 0.275000 0.000000
-0.025000 0.300000 0.000000
-0.025000 0.325000 0.000000
-0.025000 0.350000 0.000000
-0.025000 0.375000 0.000000
-0.025000 0.400000 0.000000
-0.025000 0.425000 0.000000
-0.025000 0.450000 0.000000
-0.025000 0.475000 0.000000
-0.025000 0.500000 0.000000
-0.025000 0.525000 0.000000
-0.025000 0.550000 0.000000
-0.025000 0.575000 0.000000
-0.025000 0.600000 0.000000
0.000000 -0.075000 0.000000
0.000000 -0.050000 0.000000
0.000000 -0.025000 0.000000
0.000000 0.000000 0.000000
0.000000 0.025000 0.000000
0.000000 0.050000 0.000000
0.000000 0.075000 0.000000
0.000000 0.100000 0.000000
0.000000 0.125000 0.000000
0.000000 0.150000 0.000000
0.000000 0.175000 0.000000
0.000000 0.200000 0.000000
0.000000 0.225000 0.000000
0.000000 0.250000 0.000000
0.000000 0.275000 0.000000
0.000000 0.300000 0.000000
0.000000 0.325000 0.000000
0.000000 0.350000 0.000000
0.000000 0.375000 0.000000
0.000000 0.400000 0.000000
0.000000 0.425000 0.000000
0.000000 0.450000 0.000000
0.000000 0.475000 0.000000
0.000000 0.500000 0.000000
0.000000 0.525000 0.000000
0.000000 0.550000 0.000000
0.000000 0.575000 0.000000
0.000000 0.600000 0.000000
0.025000 -0.075000 0.000000
0.025000 -0.050000 0.000000
0.025000 -0.025000 0.000000
0.025000 0.000000 0.000000
0.134496 0.028235 0.000000
0.107372 0.024516 0.000000
0.085934 0.030444 0.000000
0.063882 0.020951 0.000000
0.150360 0.055350 0.000000
0.024369 0.025820 0.000000
0.162807 0.068591 0.000000
0.118667 0.045562 0.000000
0.088364 0.052905 0.000000
0.057465 0.059822 0.000000
0.107090 0.076023 0.000000
0.081391 0.072601 0.000000
0.044081 0.037105 0.000000
0.026278 0.050409 0.000000
0.023579 0.079687 0.000000
0.034889 0.097015 0.000000
0.059585 0.115873 0.000000
0.020804 0.114837 0.000000
0.035510 0.151373 0.000000
0.036046 0.137248 0.000000
0.050000 -0.075000 0.000000
0.050000 -0.050000 0.000000
0.050000 -0.025000 0.000000
0.050000 0.000000 0.000000
0.155513 0.022501 0.000000
0.177424 0.036112 0.000000
0.214461 0.045442 0.000000
0.281633 0.043204 0.000000
0.239063 0.062383 0.000000
0.239275 0.096946 0.000000
0.213767 0.080792 0.000000
0.294464 0.107682 0.000000
0.130664 0.068245 0.000000
0.195687 0.048767 0.000000
0.168648 0.089193 0.000000
0.190697 0.073282 0.000000
0.051855 0.076482 0.000000
0.130293 0.092815 0.000000
0.094742 0.094973 0.000000
0.116068 0.105042 0.000000
0.070914 0.104850 0.000000
0.091967 0.129747 0.000000
0.061523 0.145670 0.000000
0.083120 0.145455 0.000000
0.075000 -0.075000 0.000000
0.075000 -0.050000 0.000000
0.075000 -0.025000 0.000000
0.075000 0.000000 0.000000
0.194744 0.020496 0.000000
0.260097 0.052611 0.000000
0.277159 0.022489 0.000000
0.238442 0.040575 0.000000
0.319187 0.040372 0.000000
0.410797 0.027083 0.000000
0.411018 0.069803 0.000000
0.264677 0.076450 0.000000
0.320286 0.075531 0.000000
0.333271 0.120983 0.000000
0.296270 0.080455 0.000000
0.209773 0.097516 0.000000
0.175827 0.105345 0.000000
0.155087 0.126935 0.000000
0.136776 0.124043 0.000000
0.116920 0.137935 0.000000
0.139265 0.152079 0.000000
0.187097 0.141247 0.000000
0.180768 0.126514 0.000000
0.100045 0.156585 0.000000
0.100000 -0.075000 0.000000
0.100000 -0.050000 0.000000
0.100000 -0.025000 0.000000
0.100000 0.000000 0.000000
0.335590 0.022872 0.000000
0.303248 0.026737 0.000000
0.385846 0.023645 0.000000
0.504623 0.059601 0.000000
0.237806 0.019251 0.000000
0.459972 0.027311 0.000000
0.464718 0.056433 0.000000
0.443041 0.048154 0.000000
0.400816 0.043070 0.000000
0.422170 0.089345 0.000000
0.300726 0.059319 0.000000
0.353184 0.047442 0.000000
0.345032 0.071025 0.000000
0.318892 0.094775 0.000000
0.262578 0.093902 0.000000
0.157738 0.157844 0.000000
0.293920 0.123819 0.000000
0.261525 0.119304 0.000000
0.234710 0.124007 0.000000
0.214695 0.119730 0.000000
0.125000 -0.075000 0.000000
0.125000 -0.050000 0.000000
0.125000 -0.025000 0.000000
0.125000 0.000000 0.000000
0.552180 0.030094 0.000000
0.435339 0.023727 0.000000
0.712574 0.024486 0.000000
0.683505 0.029874 0.000000
0.685136 0.047043 0.000000
0.357399 0.026634 0.000000
0.504901 0.024671 0.000000
0.532151 0.023722 0.000000
0.515687 0.045721 0.000000
0.443440 0.069406 0.000000
0.536806 0.073350 0.000000
0.480448 0.067331 0.000000
0.394172 0.067608 0.000000
0.308193 0.149461 0.000000
0.289076 0.147077 0.000000
0.344811 0.110386 0.000000
0.434313 0.108715 0.000000
0.268650 0.149541 0.000000
0.362807 0.114978 0.000000
0.248070 0.135624 0.000000
0.150000 -0.075000 0.000000
0.150000 -0.050000 0.000000
0.150000 -0.025000 0.000000
0.150000 0.000000 0.000000
0.829735 0.020888 0.000000
0.734511 0.024644 0.000000
0.809924 0.053546 0.000000
0.749710 0.060986 0.000000
0.798586 0.024687 0.000000
0.826997 0.062238 0.000000
0.661798 0.027138 0.000000
0.748837 0.039687 0.000000
0.643692 0.023273 0.000000
0.653514 0.078827 0.000000
0.611086 0.024114 0.000000
0.482169 0.024902 0.000000
0.581364 0.021154 0.000000
0.592966 0.044547 0.000000
0.487420 0.095456 0.000000
0.395390 0.104321 0.000000
0.369207 0.061569 0.000000
0.413996 0.118104 0.000000
0.379647 0.106940 0.000000
0.363605 0.082407 0.000000
0.175000 -0.075000 0.000000
0.175000 -0.050000 0.000000
0.175000 -0.025000 0.000000
0.175000 0.000000 0.000000
0.939631 0.144117 0.000000
0.883579 0.022129 0.000000
0.959268 0.034996 0.000000
0.976356 0.020396 0.000000
0.938068 0.030651 0.000000
0.842856 0.046721 0.000000
0.920187 0.024418 0.000000
0.901713 0.039952 0.000000
0.812543 0.084396 0.000000
0.853444 0.027117 0.000000
0.712960 0.059316 0.000000
0.775985 0.058553 0.000000
0.625651 0.046286 0.000000
0.610834 0.088966 0.000000
0.553149 0.050854 0.000000
0.641657 0.058592 0.000000
0.575786 0.052297 0.000000
0.500957 0.090308 0.000000
0.450460 0.105714 0.000000
0.459100 0.090675 0.000000
0.200000 -0.075000 0.000000
0.200000 -0.050000 0.000000
0.200000 -0.025000 0.000000
0.200000 0.000000 0.000000
0.958404 0.394325 0.000000
1.004027 0.031006 0.000000
0.968537 0.262173 0.000000
0.990779 0.047134 0.000000
0.976756 0.091492 0.000000
0.981149 0.121456 0.000000
0.956477 0.132573 0.000000
0.967705 0.067632 0.000000
0.952346 0.057527 0.000000
0.932753 0.107529 0.000000
0.917089 0.070416 0.000000
0.768124 0.023030 0.000000
0.881293 0.080257 0.000000
0.789482 0.042130 0.000000
0.624461 0.086486 0.000000
0.678441 0.091610 0.000000
0.708419 0.076906 0.000000
0.611708 0.063870 0.000000
0.582363 0.082492 0.000000
0.525025 0.085130 0.000000
0.225000 -0.075000 0.000000
0.225000 -0.050000 0.000000
0.225000 -0.025000 0.000000
0.225000 0.000000 0.000000
0.999399 0.121230 0.000000
0.981217 0.583503 0.000000
0.997682 0.068899 0.000000
0.942393 0.273054 0.000000
0.994785 0.089682 0.000000
0.958944 0.290687 0.000000
0.980383 0.251012 0.000000
0.988634 0.170083 0.000000
0.991039 0.145750 0.000000
1.003963 0.190324 0.000000
0.968673 0.154830 0.000000
0.967978 0.206203 0.000000
0.925504 0.157767 0.000000
0.928308 0.127657 0.000000
0.902363 0.060574 0.000000
0.864184 0.064523 0.000000
0.839909 0.082299 0.000000
0.735989 0.074434 0.000000
0.665465 0.093327 0.000000
0.555822 0.079287 0.000000
0.250000 -0.075000 0.000000
0.250000 -0.050000 0.000000
0.250000 -0.025000 0.000000
0.250000 0.000000 0.000000
0.999926 0.581877 0.000000
0.949391 0.493639 0.000000
0.975197 0.292364 0.000000
0.983127 0.281185 0.000000
0.930677 0.567139 0.000000
1.002946 0.332889 0.000000
0.919180 0.488570 0.000000
0.967839 0.434626 0.000000
0.906835 0.312580 0.000000
0.989404 0.236003 0.000000
0.947722 0.209776 0.000000
0.943123 0.230410 0.000000
0.982543 0.205888 0.000000
0.903529 0.193698 0.000000
0.969607 0.174512 0.000000
0.942843 0.096443 0.000000
0.933104 0.075069 0.000000
0.873408 0.045181 0.000000
0.781192 0.083650 0.000000
0.689401 0.068718 0.000000
0.275000 -0.075000 0.000000
0.275000 -0.050000 0.000000
0.275000 -0.025000 0.000000
0.275000 0.000000 0.000000
0.300000 -0.075000 0.000000
0.300000 -0.050000 0.000000
0.300000 -0.025000 0.000000
0.300000 0.000000 0.000000
0.325000 -0.075000 0.000000
0.325000 -0.050000 0.000000
0.325000 -0.025000 0.000000
0.325000 0.000000 0.000000
0.350000 -0.075000 0.000000
0.350000 -0.050000 0.000000
0.350000 -0.025000 0.000000
0.350000 0.000000 0.000000
0.375000 -0.075000 0.000000
0.375000 -0.050000 0.000000
0.375000 -0.025000 0.000000
0.375000 0.000000 0.000000
0.400000 -0.075000 0.000000
0.400000 -0.050000 0.000000
0.400000 -0.025000 0.000000
0.400000 0.000000 0.000000
0.425000 -0.075000 0.000000
0.425000 -0.050000 0.000000
0.425000 -0.025000 0.000000
0.425000 0.000000 0.000000
0.450000 -0.075000 0.000000
0.450000 -0.050000 0.000000
0.450000 -0.025000 0.000000
0.450000 0.000000 0.000000
0.475000 -0.075000 0.000000
0.475000 -0.050000 0.000000
0.475000 -0.025000 0.000000
0.475000 0.000000 0.000000
0.500000 -0.075000 0.000000
0.500000 -0.050000 0.000000
0.500000 -0.025000 0.000000
0.500000 0.000000 0.000000
0.525000 -0.075000 0.000000
0.525000 -0.050000 0.000000
0.525000 -0.025000 0.000000
0.525000 0.000000 0.000000
0.550000 -0.075000 0.000000
0.550000 -0.050000 0.000000
0.550000 -0.025000 0.000000
0.550000 0.000000 0.000000
0.575000 -0.075000 0.000000
0.575000 -0.050000 0.000000
0.575000 -0.025000 0.000000
0.575000 0.000000 0.000000
0.600000 -0.075000 0.000000
0.600000 -0.050000 0.000000
0.600000 -0.025000 0.000000
0.600000 0.000000 0.000000
0.625000 -0.075000 0.000000
0.625000 -0.050000 0.000000
0.625000 -0.025000 0.000000
0.625000 0.000000 0.000000
0.650000 -0.075000 0.000000
0.650000 -0.050000 0.000000
0.650000 -0.025000 0.000000
0.650000 0.000000 0.000000
0.675000 -0.075000 0.000000
0.675000 -0.050000 0.000000
0.675000 -0.025000 0.000000
0.675000 0.000000 0.000000
0.700000 -0.075000 0.000000
0.700000 -0.050000 0.000000
0.700000 -0.025000 0.000000
0.700000 0.000000 0.000000
0.725000 -0.075000 0.000000
0.725000 -0.050000 0.000000
0.725000 -0.025000 0.000000
0.725000 0.000000 0.000000
0.750000 -0.075000 0.000000
0.750000 -0.050000 0.000000
0.750000 -0.025000 0.000000
0.750000 0.000000 0.000000
0.775000 -0.075000 0.000000
0.775000 -0.050000 0.000000
0.775000 -0.025000 0.000000
0.775000 0.000000 0.000000
0.800000 -0.075000 0.000000
0.800000 -0.050000 0.000000
0.800000 -0.025000 0.000000
0.800000 0.000000 0.000000
0.825000 -0.075000 0.000000
0.825000 -0.050000 0.000000
0.825000 -0.025000 0.000000
0.825000 0.000000 0.000000
0.850000 -0.075000 0.000000
0.850000 -0.050000 0.000000
0.850000 -0.025000 0.000000
0.850000 0.000000 0.000000
0.875000 -0.075000 0.000000
0.875000 -0.050000 0.000000
0.875000 -0.025000 0.000000
0.875000 0.000000 0.000000
0.900000 -0.075000 0.000000
0.900000 -0.050000 0.000000
0.900000 -0.025000 0.000000
0.900000 0.000000 0.000000
0.925000 -0.075000 0.000000
0.925000 -0.050000 0.000000
0.925000 -0.025000 0.000000
0.925000 0.000000 0.000000
0.950000 -0.075000 0.000000
0.950000 -0.050000 0.000000
0.950000 -0.025000 0.000000
0.950000 0.000000 0.000000
0.975000 -0.075000 0.000000
0.975000 -0.050000 0.000000
0.975000 -0.025000 0.000000
0.975000 0.000000 0.000000
1.000000 -0.075000 0.000000
1.000000 -0.050000 0.000000
1.000000 -0.025000 0.000000
1.000000 0.000000 0.000000
1.025000 -0.075000 0.000000
1.025000 -0.050000 0.000000
1.025000 -0.025000 0.000000
1.025000 0.000000 0.000000
1.025000 0.025000 0.000000
1.025000 0.050000 0.000000
1.025000 0.075000 0.000000
1.025000 0.100000 0.000000
1.025000 0.125000 0.000000
1.025000 0.150000 0.000000
1.025000 0.175000 0.000000
1.025000 0.200000 0.000000
1.025000 0.225000 0.000000
1.025000 0.250000 0.000000
1.025000 0.275000 0.000000
1.025000 0.300000 0.000000
1.025000 0.325000 0.000000
1.025000 0.350000 0.000000
1.025000 0.375000 0.000000
1.025000 0.400000 0.000000
1.025000 0.425000 0.000000
1.025000 0.450000 0.000000
1.025000 0.475000 0.000000
1.025000 0.500000 0.000000
1.025000 0.525000 0.000000
1.025000 0.550000 0.000000
1.025000 0.575000 0.000000
1.025000 0.600000 0.000000
1.050000 -0.075000 0.000000
1.050000 -0.050000 0.000000
1.050000 -0.025000 0.000000
1.050000 0.000000 0.000000
1.050000 0.025000 0.000000
1.050000 0.050000 0.000000
1.050000 0.075000 0.000000
1.050000 0.100000 0.000000
1.050000 0.125000 0.000000
1.050000 0.150000 0.000000
1.050000 0.175000 0.000000
1.050000 0.200000 0.000000
1.050000 0.225000 0.000000
1.050000 0.250000 0.000000
1.050000 0.275000 0.000000
1.050000 0.300000 0.000000
1.050000 0.325000 0.000000
1.050000 0.350000 0.000000
1.050000 0.375000 0.000000
1.050000 0.400000 0.000000
1.050000 0.425000 0.000000
1.050000 0.450000 0.000000
1.050000 0.475000 0.000000
1.050000 0.500000 0.000000
1.050000 0.525000 0.000000
1.050000 0.550000 0.000000
1.050000 0.575000 0.000000
1.050000 0.600000 0.000000
1.075000 -0.075000 0.000000
1.075000 -0.050000 0.000000
1.075000 -0.025000 0.000000
1.075000 0.000000 0.000000
1.075000 0.025000 0.000000
1.075000 0.050000 0.000000
1.075000 0.075000 0.000000
1.075000 0.100000 0.000000
1.075000 0.125000 0.000000
1.075000 0.150000 0.000000
1.075000 0.175000 0.000000
1.075000 0.200000 0.000000
1.075000 0.225000 0.000000
1.075000 0.250000 0.000000
1.075000 0.275000 0.000000
1.075000 0.300000 0.000000
1.075000 0.325000 0.000000
1.075000 0.350000 0.000000
1.075000 0.375000 0.000000
1.075000 0.400000 0.000000
1.075000 0.425000 0.000000
1.075000 0.450000 0.000000
1.075000 0.475000 0.000000
1.075000 0.500000 0.000000
1.075000 0.525000 0.000000
1.075000 0.550000 0.000000
1.075000 0.575000 0.000000
1.075000 0.600000 0.000000
1.100000 -0.075000 0.000000
1.100000 -0.050000 0.000000
1.100000 -0.025000 0.000000
1.100000 0.000000 0.000000
1.100000 0.025000 0.000000
1.100000 0.050000 0.000000
1.100000 0.075000 0.000000
1.100000 0.100000 0.000000
1.100000 0.125000 0.000000
1.100000 0.150000 0.000000
1.100000 0.175000 0.000000
1.100000 0.200000 0.000000
1.100000 0.225000 0.000000
1.100000 0.250000 0.000000
1.100000 0.275000 0.000000
1.100000 0.300000 0.000000
1.100000 0.325000 0.000000
1.100000 0.350000 0.000000
1.100000 0.375000 0.000000
1.100000 0.400000 0.000000
1.100000 0.425000 0.000000
1.100000 0.450000 0.000000
1.100000 0.475000 0.000000
1.100000 0.500000 0.000000
1.100000 0.525000 0.000000
1.100000 0.550000 0.000000
1.100000 0.575000 0.000000
1.100000 0.600000 0.000000
</DataArray>
</Points>
<PointData>
<DataArray NumberOfComponents='1' type='Int32' Name='ParticleType' format='ascii'>
3
3
3
3
3
3
3
3
3
3
3
3
3
3
3
3
3
3
3
3
3
3
3
3
3
3
2
2
3
3
3
3
3
3
3
3
3
3
3
3
3
3
3
3
3
3
3
3
3
3
3
3
3
3
2
2
3
3
2
2
2
2
2
2
2
2
2
2
2
2
2
2
2
2
2
2
2
2
2
2
2
2
2
2
3
3
2
2
2
2
2
2
2
2
2
2
2
2
2
2
2
2
2
2
2
2
2
2
2
2
2
2
3
3
2
2
0
0
0
0
0
0
0
0
0
0
0
0
0
0
0
0
0
0
0
0
3
3
2
2
0
0
0
0
0
0
0
0
0
0
0
0
0
0
0
0
0
0
0
0
3
3
2
2
0
0
0
0
0
0
0
0
0
0
0
0
0
0
0
0
0
0
0
0
3
3
2
2
0
0
0
0
0
0
0
0
0
0
0
0
0
0
0
0
0
0
0
0
3
3
2
2
0
0
0
0
0
0
0
0
0
0
0
0
0
0
0
0
0
0
0
0
3
3
2
2
0
0
0
0
0
0
0
0
0
0
0
0
0
0
0
0
0
0
0
0
3
3
2
2
0
0
0
0
0
0
0
0
0
0
0
0
0
0
0
0
0
0
0
0
3
3
2
2
0
0
0
0
0
0
0
0
0
0
0
0
0
0
0
0
0
0
0
0
3
3
2
2
0
0
0
0
0
0
0
0
0
0
0
0
0
0
0
0
0
0
0
0
3
3
2
2
0
0
0
0
0
0
0
0
0
0
0
0
0
0
0
0
0
0
0
0
3
3
2
2
3
3
2
2
3
3
2
2
3
3
2
2
3
3
2
2
3
3
2
2
3
3
2
2
3
3
2
2
3
3
2
2
3
3
2
2
3
3
2
2
3
3
2
2
3
3
2
2
3
3
2
2
3
3
2
2
3
3
2
2
3
3
2
2
3
3
2
2
3
3
2
2
3
3
2
2
3
3
2
2
3
3
2
2
3
3
2
2
3
3
2
2
3
3
2
2
3
3
2
2
3
3
2
2
3
3
2
2
3
3
2
2
3
3
2
2
3
3
2
2
2
2
2
2
2
2
2
2
2
2
2
2
2
2
2
2
2
2
2
2
2
2
2
2
3
3
2
2
2
2
2
2
2
2
2
2
2
2
2
2
2
2
2
2
2
2
2
2
2
2
2
2
3
3
3
3
3
3
3
3
3
3
3
3
3
3
3
3
3
3
3
3
3
3
3
3
3
3
2
2
3
3
3
3
3
3
3
3
3
3
3
3
3
3
3
3
3
3
3
3
3
3
3
3
3
3
2
2
</DataArray>
<DataArray NumberOfComponents='1' type='Float32' Name='Velocity' format='ascii'>
0.000000
0.000000
0.000000
0.000000
0.000000
0.000000
0.000000
0.000000
0.000000
0.000000
0.000000
0.000000
0.000000
0.000000
0.000000
0.000000
0.000000
0.000000
0.000000
0.000000
0.000000
0.000000
0.000000
0.000000
0.000000
0.000000
0.000000
0.000000
0.000000
0.000000
0.000000
0.000000
0.000000
0.000000
0.000000
0.000000
0.000000
0.000000
0.000000
0.000000
0.000000
0.000000
0.000000
0.000000
0.000000
0.000000
0.000000
0.000000
0.000000
0.000000
0.000000
0.000000
0.000000
0.000000
0.000000
0.000000
0.000000
0.000000
0.000000
0.000000
0.000000
0.000000
0.000000
0.000000
0.000000
0.000000
0.000000
0.000000
0.000000
0.000000
0.000000
0.000000
0.000000
0.000000
0.000000
0.000000
0.000000
0.000000
0.000000
0.000000
0.000000
0.000000
0.000000
0.000000
0.000000
0.000000
0.000000
0.000000
0.000000
0.000000
0.000000
0.000000
0.000000
0.000000
0.000000
0.000000
0.000000
0.000000
0.000000
0.000000
0.000000
0.000000
0.000000
0.000000
0.000000
0.000000
0.000000
0.000000
0.000000
0.000000
0.000000
0.000000
0.000000
0.000000
0.000000
0.000000
0.642849
0.459615
0.574010
0.420690
0.610339
0.370561
0.859481
0.497312
0.244322
0.201070
0.366503
0.602961
0.096664
0.483066
0.182709
0.450202
0.287737
0.233080
0.328450
0.325255
0.000000
0.000000
0.000000
0.000000
0.523418
0.435749
0.793067
0.838477
0.926197
0.936386
0.626618
1.057433
0.381966
0.996423
0.803411
0.707095
0.214799
0.577678
0.268408
0.545272
0.294480
0.518021
0.292681
0.434454
0.000000
0.000000
0.000000
0.000000
0.524253
0.476377
0.655161
0.711621
0.843320
1.139737
1.445286
0.649185
0.900314
1.516372
0.797063
0.600975
0.492281
0.439029
0.565224
0.536743
0.592848
0.767141
0.368688
0.654482
0.000000
0.000000
0.000000
0.000000
0.694175
0.615501
0.908779
1.809848
0.524426
1.304816
1.215696
1.211099
1.081934
1.347090
0.882503
0.797588
0.985010
1.195477
0.777238
0.380917
0.957332
1.062504
1.134428
0.632819
0.000000
0.000000
0.000000
0.000000
1.477785
1.098051
1.935583
2.147915
1.861695
1.081792
1.319196
1.556641
1.897383
1.285445
1.860026
1.345846
1.290264
0.925846
0.880982
1.179924
1.658358
0.724563
0.917428
0.798864
0.000000
0.000000
0.000000
0.000000
1.998401
2.001294
2.236972
2.399835
2.060145
1.863917
1.988446
1.834309
1.771126
1.576719
2.109023
1.160886
1.613382
2.101537
1.321251
1.061569
1.266380
1.429515
1.542536
1.366954
0.000000
0.000000
0.000000
0.000000
2.071065
1.713426
1.120445
1.044362
0.959356
2.032088
1.411831
1.396104
1.694580
1.695081
2.063806
2.423660
2.119925
1.405288
1.506896
2.400795
2.085419
1.409486
1.091000
1.394274
0.000000
0.000000
0.000000
0.000000
2.746369
0.832056
2.149685
1.005658
2.098223
1.990703
2.134213
1.158612
1.020381
2.041249
2.084716
2.033463
2.217200
1.945219
1.449211
1.834108
2.010545
2.017528
1.399574
1.455984
0.000000
0.000000
0.000000
0.000000
1.282112
3.759873
1.011466
1.691351
1.316468
1.867207
2.286505
1.647456
2.029114
1.567925
2.125053
2.010495
1.429521
2.185046
2.062873
2.081089
2.499372
2.269935
1.748727
2.178477
0.000000
0.000000
0.000000
0.000000
3.028201
3.082323
2.204066
2.326173
3.259498
2.457606
3.002383
2.707072
1.983949
2.208712
1.593615
1.128953
2.203842
1.499285
1.767738
1.287191
1.834428
1.810828
2.194952
2.004150
0.000000
0.000000
0.000000
0.000000
0.000000
0.000000
0.000000
0.000000
0.000000
0.000000
0.000000
0.000000
0.000000
0.000000
0.000000
0.000000
0.000000
0.000000
0.000000
0.000000
0.000000
0.000000
0.000000
0.000000
0.000000
0.000000
0.000000
0.000000
0.000000
0.000000
0.000000
0.000000
0.000000
0.000000
0.000000
0.000000
0.000000
0.000000
0.000000
0.000000
0.000000
0.000000
0.000000
0.000000
0.000000
0.000000
0.000000
0.000000
0.000000
0.000000
0.000000
0.000000
0.000000
0.000000
0.000000
0.000000
0.000000
0.000000
0.000000
0.000000
0.000000
0.000000
0.000000
0.000000
0.000000
0.000000
0.000000
0.000000
0.000000
0.000000
0.000000
0.000000
0.000000
0.000000
0.000000
0.000000
0.000000
0.000000
0.000000
0.000000
0.000000
0.000000
0.000000
0.000000
0.000000
0.000000
0.000000
0.000000
0.000000
0.000000
0.000000
0.000000
0.000000
0.000000
0.000000
0.000000
0.000000
0.000000
0.000000
0.000000
0.000000
0.000000
0.000000
0.000000
0.000000
0.000000
0.000000
0.000000
0.000000
0.000000
0.000000
0.000000
0.000000
0.000000
0.000000
0.000000
0.000000
0.000000
0.000000
0.000000
0.000000
0.000000
0.000000
0.000000
0.000000
0.000000
0.000000
0.000000
0.000000
0.000000
0.000000
0.000000
0.000000
0.000000
0.000000
0.000000
0.000000
0.000000
0.000000
0.000000
0.000000
0.000000
0.000000
0.000000
0.000000
0.000000
0.000000
0.000000
0.000000
0.000000
0.000000
0.000000
0.000000
0.000000
0.000000
0.000000
0.000000
0.000000
0.000000
0.000000
0.000000
0.000000
0.000000
0.000000
0.000000
0.000000
0.000000
0.000000
0.000000
0.000000
0.000000
0.000000
0.000000
0.000000
0.000000
0.000000
0.000000
0.000000
0.000000
0.000000
0.000000
0.000000
0.000000
0.000000
0.000000
0.000000
0.000000
0.000000
0.000000
0.000000
0.000000
0.000000
0.000000
0.000000
0.000000
0.000000
0.000000
0.000000
0.000000
0.000000
0.000000
0.000000
0.000000
0.000000
0.000000
0.000000
0.000000
0.000000
0.000000
0.000000
0.000000
0.000000
0.000000
0.000000
0.000000
0.000000
0.000000
0.000000
0.000000
0.000000
0.000000
0.000000
0.000000
0.000000
0.000000
0.000000
0.000000
0.000000
0.000000
0.000000
0.000000
0.000000
</DataArray>
<DataArray NumberOfComponents='1' type='Float32' Name='pressure' format='ascii'>
0.000000
0.000000
0.000000
0.000000
0.000000
0.000000
0.000000
0.000000
0.000000
0.000000
0.000000
0.000000
0.000000
0.000000
0.000000
0.000000
0.000000
0.000000
0.000000
0.000000
0.000000
0.000000
0.000000
0.000000
0.000000
0.000000
0.000000
0.000000
0.000000
0.000000
0.000000
0.000000
0.000000
0.000000
0.000000
0.000000
0.000000
0.000000
0.000000
0.000000
0.000000
0.000000
0.000000
0.000000
0.000000
0.000000
0.000000
0.000000
0.000000
0.000000
0.000000
0.000000
0.000000
0.000000
0.000000
0.000000
0.000000
0.000000
697.590332
775.239380
1037.970947
427.918549
1327.039307
1633.638184
1558.452759
0.000000
0.000000
0.000000
0.000000
0.000000
0.000000
0.000000
0.000000
0.000000
0.000000
0.000000
0.000000
0.000000
0.000000
0.000000
0.000000
0.000000
0.000000
0.000000
0.000000
0.000000
625.564636
613.832764
1914.360718
8.695927
508.417328
2246.309570
0.000000
0.000000
0.000000
0.000000
0.000000
0.000000
0.000000
0.000000
0.000000
0.000000
0.000000
0.000000
0.000000
0.000000
0.000000
0.000000
0.000000
0.000000
0.000000
0.000000
0.000000
0.000000
444.030060
0.000000
948.042236
1745.281006
1532.265381
50.653240
923.058960
1317.179077
783.079468
573.330383
631.674377
1402.425537
2418.462646
0.000000
792.989807
182.455505
91.592072
51.885609
984.838318
331.931793
0.000000
178.492798
0.000000
0.000000
1757.292847
52.545158
479.872375
0.000000
0.000000
1652.460938
0.000000
0.000000
0.000000
578.750000
0.000000
1969.457031
441.849182
0.000000
972.808899
0.000000
735.829041
222.860489
382.709259
1161.026855
0.000000
0.000000
0.000000
0.000000
2463.306152
2372.371582
241.740814
794.564087
227.002151
1642.273804
393.114563
2252.486084
0.000000
812.496033
1470.144775
0.000000
0.000000
422.613708
1463.667114
1546.797729
0.000000
0.000000
0.000000
0.000000
0.000000
0.000000
0.000000
0.000000
1616.345825
1504.517944
2560.879395
1263.333740
0.000000
0.000000
211.827713
1080.231079
2132.115479
508.514740
1.132285
2234.145020
1240.697144
1581.520630
0.000000
0.000000
843.594543
0.000000
383.380035
1236.786133
0.000000
0.000000
0.000000
0.000000
971.254150
1166.504272
1570.742554
895.460327
0.000000
598.930603
0.000000
1226.545654
729.078308
1202.775513
633.461182
980.093201
0.000000
1068.666138
646.580017
0.000000
0.000000
1319.391357
0.000000
0.000000
0.000000
0.000000
0.000000
0.000000
2781.057861
2430.574463
0.000000
0.000000
0.000000
0.000000
0.000000
1323.414307
184.422638
0.000000
551.258545
0.000000
0.000000
52.241852
0.000000
0.000000
0.000000
0.000000
864.769043
0.000000
672.897522
1472.686279
0.000000
0.000000
2980.991699
1903.733032
0.000000
0.000000
1562.553833
1265.537842
539.430603
924.685730
0.000000
116.510002
0.000000
176.271042
0.000000
0.000000
0.000000
0.000000
615.824646
0.000000
0.000000
0.000000
0.000000
731.541992
0.000000
0.000000
4171.435547
2599.618896
0.000000
3371.970703
908.401733
2719.654785
0.000000
0.000000
1418.859375
1517.134644
2085.314453
0.000000
1423.423340
0.000000
0.000000
2683.627686
0.000000
0.000000
0.000000
0.000000
0.000000
0.000000
0.000000
0.000000
3993.117920
1131.066895
0.000000
0.000000
1094.076050
0.000000
2441.017090
0.000000
0.000000
2128.076660
0.000000
0.000000
2279.086914
0.000000
0.000000
0.000000
353.477570
0.000000
0.000000
0.000000
0.000000
0.000000
0.000000
0.000000
3790.656494
692.424377
0.000000
0.000000
340.843719
1318.046509
0.000000
0.000000
0.000000
0.000000
0.000000
0.000000
0.000000
0.000000
0.000000
0.000000
0.000000
537.037598
1512.674072
0.000000
0.000000
1018.742737
0.000000
0.000000
2920.367432
1663.605103
0.000000
0.000000
1438.580811
1722.597290
0.000000
0.000000
2315.878906
2202.595947
0.000000
0.000000
2086.283447
2752.271973
0.000000
0.000000
1835.606934
687.726135
0.000000
0.000000
1622.943481
2573.206543
0.000000
0.000000
1989.601440
2283.182861
0.000000
0.000000
1792.483643
2345.605957
0.000000
0.000000
2078.307617
2890.662109
0.000000
0.000000
2206.793213
3803.744629
0.000000
0.000000
1932.118652
2966.922607
0.000000
0.000000
428.004913
0.000000
0.000000
0.000000
1727.618652
491.447662
0.000000
0.000000
1037.797607
0.000000
0.000000
0.000000
71.524208
0.000000
0.000000
0.000000
500.537994
1803.375000
0.000000
0.000000
0.000000
0.000000
0.000000
0.000000
0.000000
0.000000
0.000000
0.000000
0.000000
0.000000
0.000000
0.000000
0.000000
0.000000
0.000000
0.000000
112.520592
0.000000
0.000000
0.000000
386.190491
0.000000
0.000000
0.000000
2018.462280
2195.625244
0.000000
0.000000
360.176178
652.923401
0.000000
0.000000
137.212738
0.000000
0.000000
0.000000
0.000000
0.000000
0.000000
0.000000
0.000000
0.000000
0.000000
0.000000
0.000000
0.000000
0.000000
0.000000
2468.902100
3245.953125
0.000000
0.000000
816.849487
0.000000
0.000000
0.000000
1245.637817
528.199951
3445.379150
287.355530
0.000000
0.000000
0.000000
0.000000
0.000000
0.000000
0.000000
0.000000
0.000000
0.000000
0.000000
0.000000
0.000000
0.000000
0.000000
0.000000
0.000000
0.000000
0.000000
0.000000
0.000000
0.000000
0.000000
0.000000
1386.241211
1649.506958
3013.882812
1283.606445
0.000000
0.000000
0.000000
0.000000
556.225159
1026.192261
0.000000
0.000000
0.000000
0.000000
520.437317
0.000000
0.000000
0.000000
0.000000
0.000000
0.000000
0.000000
0.000000
0.000000
0.000000
0.000000
0.000000
0.000000
0.000000
0.000000
0.000000
0.000000
0.000000
0.000000
0.000000
0.000000
0.000000
0.000000
0.000000
0.000000
0.000000
0.000000
0.000000
0.000000
0.000000
0.000000
0.000000
0.000000
0.000000
0.000000
0.000000
0.000000
0.000000
0.000000
0.000000
0.000000
0.000000
0.000000
0.000000
0.000000
0.000000
0.000000
0.000000
0.000000
0.000000
0.000000
0.000000
0.000000
0.000000
0.000000
0.000000
0.000000
0.000000
0.000000
0.000000
0.000000
0.000000
0.000000
0.000000
0.000000
0.000000
0.000000
</DataArray>
</PointData>
<Cells>
<DataArray type='Int32' Name='connectivity' format='ascii'>
0
1
2
3
4
5
6
7
8
9
10
11
12
13
14
15
16
17
18
19
20
21
22
23
24
25
26
27
28
29
30
31
32
33
34
35
36
37
38
39
40
41
42
43
44
45
46
47
48
49
50
51
52
53
54
55
56
57
58
59
60
61
62
63
64
65
66
67
68
69
70
71
72
73
74
75
76
77
78
79
80
81
82
83
84
85
86
87
88
89
90
91
92
93
94
95
96
97
98
99
100
101
102
103
104
105
106
107
108
109
110
111
112
113
114
115
116
117
118
119
120
121
122
123
124
125
126
127
128
129
130
131
132
133
134
135
136
137
138
139
140
141
142
143
144
145
146
147
148
149
150
151
152
153
154
155
156
157
158
159
160
161
162
163
164
165
166
167
168
169
170
171
172
173
174
175
176
177
178
179
180
181
182
183
184
185
186
187
188
189
190
191
192
193
194
195
196
197
198
199
200
201
202
203
204
205
206
207
208
209
210
211
212
213
214
215
216
217
218
219
220
221
222
223
224
225
226
227
228
229
230
231
232
233
234
235
236
237
238
239
240
241
242
243
244
245
246
247
248
249
250
251
252
253
254
255
256
257
258
259
260
261
262
263
264
265
266
267
268
269
270
271
272
273
274
275
276
277
278
279
280
281
282
283
284
285
286
287
288
289
290
291
292
293
294
295
296
297
298
299
300
301
302
303
304
305
306
307
308
309
310
311
312
313
314
315
316
317
318
319
320
321
322
323
324
325