<?xml version='1.0' encoding='UTF-8'?>
<VTKFile xmlns='VTK' byte_order='LittleEndian' version='0.1' type='UnstructuredGrid'>
<UnstructuredGrid>
<Piece NumberOfCells='584' NumberOfPoints='584'>
<Points>
<DataArray NumberOfComponents='3' type='Float32' Name='Position' format='ascii'>
-0.075000 -0.075000 0.000000
-0.075000 -0.050000 0.000000
-0.075000 -0.025000 0.000000
-0.075000 0.000000 0.000000
-0.075000 0.025000 0.000000
-0.075000 0.050000 0.000000
-0.075000 0.075000 0.000000
-0.075000 0.100000 0.000000
-0.075000 0.125000 0.000000
-0.075000 0.150000 0.000000
-0.075000 0.175000 0.000000
-0.075000 0.200000 0.000000
-0.075000 0.225000 0.000000
-0.075000 0.250000 0.000000
-0.075000 0.275000 0.000000
-0.075000 0.300000 0.000000
-0.075000 0.325000 0.000000
-0.075000 0.350000 0.000000
-0.075000 0.375000 0.000000
-0.075000 0.400000 0.000000
-0.075000 0.425000 0.000000
-0.075000 0.450000 0.000000
-0.075000 0.475000 0.000000
-0.075000 0.500000 0.000000
-0.075000 0.525000 0.000000
-0.075000 0.550000 0.000000
-0.075000 0.575000 0.000000
-0.075000 0.600000 0.000000
-0.050000 -0.075000 0.000000
-0.050000 -0.050000 0.000000
-0.050000 -0.025000 0.000000
-0.050000 0.000000 0.000000
-0.050000 0.025000 0.000000
-0.050000 0.050000 0.000000
-0.050000 0.075000 0.000000
-0.050000 0.100000 0.000000
-0.050000 0.125000 0.000000
-0.050000 0.150000 0.000000
-0.050000 0.175000 0.000000
-0.050000 0.200000 0.000000
-0.050000 0.225000 0.000000
-0.050000 0.250000 0.000000
-0.050000 0.275000 0.000000
-0.050000 0.300000 0.000000
-0.050000 0.325000 0.000000
-0.050000 0.350000 0.000000
-0.050000 0.375000 0.000000
-0.050000 0.400000 0.000000
-0.050000 0.425000 0.000000
-0.050000 0.450000 0.000000
-0.050000 0.475000 0.000000
-0.050000 0.500000 0.000000
-0.050000 0.525000 0.000000
-0.050000 0.550000 0.000000
-0.050000 0.575000 0.000000
-0.050000 0.600000 0.000000
-0.025000 -0.075000 0.000000
-0.025000 -0.050000 0.000000
-0.025000 -0.025000 0.000000
-0.025000 0.000000 0.000000
-0.025000 0.025000 0.000000
-0.025000 0.050000 0.000000
-0.025000 0.075000 0.000000
-0.025000 0.100000 0.000000
-0.025000 0.125000 0.000000
-0.025000 0.150000 0.000000
-0.025000 0.175000 0.000000
-0.025000 0.200000 0.000000
-0.025000 0.225000 0.000000
-0.025000 0.250000 0.000000
-0.025000 0.275000 0.000000
-0.025000 0.300000 0.000000
-0.025000 0.325000 0.000000
-0.025000 0.350000 0.000000
-0.025000 0.375000 0.000000
-0.025000 0.400000 0.000000
-0.025000 0.425000 0.000000
-0.025000 0.450000 0.000000
-0.025000 0.475000 0.000000
-0.025000 0.500000 0.000000
-0.025000 0.525000 0.000000
-0.025000 0.550000 0.000000
-0.025000 0.575000 0.000000
-0.025000 0.600000 0.000000
0.000000 -0.075000 0.000000
0.000000 -0.050000 0.000000
0.000000 -0.025000 0.000000
0.000000 0.000000 0.000000
0.000000 0.025000 0.000000
0.000000 0.050000 0.000000
0.000000 0.075000 0.000000
0.000000 0.100000 0.000000
0.000000 0.125000 0.000000
0.000000 0.150000 0.000000
0.000000 0.175000 0.000000
0.000000 0.200000 0.000000
0.000000 0.225000 0.000000
0.000000 0.250000 0.000000
0.000000 0.275000 0.000000
0.000000 0.300000 0.000000
0.000000 0.325000 0.000000
0.000000 0.350000 0.000000
0.000000 0.375000 0.000000
0.000000 0.400000 0.000000
0.000000 0.425000 0.000000
0.000000 0.450000 0.000000
0.000000 0.475000 0.000000
0.000000 0.500000 0.000000
0.000000 0.525000 0.000000
0.000000 0.550000 0.000000
0.000000 0.575000 0.000000
0.000000 0.600000 0.000000
0.025000 -0.075000 0.000000
0.025000 -0.050000 0.000000
0.025000 -0.025000 0.000000
0.025000 0.000000 0.000000
0.059395 0.022508 0.000000
0.027200 0.023711 0.000000
0.055690 0.043257 0.000000
0.028592 0.044306 0.000000
0.071184 0.056158 0.000000
0.024079 0.066487 0.000000
0.073478 0.078841 0.000000
0.039190 0.080358 0.000000
0.059920 0.097371 0.000000
0.022960 0.098790 0.000000
0.051946 0.115930 0.000000
0.029023 0.122351 0.000000
0.024592 0.144075 0.000000
0.023640 0.168369 0.000000
0.031012 0.194436 0.000000
0.023675 0.216341 0.000000
0.034276 0.235992 0.000000
0.022078 0.256985 0.000000
0.032053 0.281792 0.000000
0.023250 0.296907 0.000000
0.050000 -0.075000 0.000000
0.050000 -0.050000 0.000000
0.050000 -0.025000 0.000000
0.050000 0.000000 0.000000
0.115368 0.035697 0.000000
0.091721 0.020464 0.000000
0.095485 0.044106 0.000000
0.158212 0.077154 0.000000
0.093440 0.069291 0.000000
0.116968 0.084028 0.000000
0.095187 0.100571 0.000000
0.119533 0.107969 0.000000
0.076522 0.119350 0.000000
0.096257 0.128857 0.000000
0.065868 0.145752 0.000000
0.085070 0.157322 0.000000
0.049432 0.158204 0.000000
0.078300 0.178097 0.000000
0.048576 0.181465 0.000000
0.068593 0.202110 0.000000
0.053475 0.218962 0.000000
0.062643 0.239753 0.000000
0.052004 0.263407 0.000000
0.057738 0.284242 0.000000
0.075000 -0.075000 0.000000
0.075000 -0.050000 0.000000
0.075000 -0.025000 0.000000
0.075000 0.000000 0.000000
0.141276 0.020298 0.000000
0.126380 0.066339 0.000000
0.177313 0.027010 0.000000
0.135414 0.045673 0.000000
0.171060 0.060541 0.000000
0.185886 0.083528 0.000000
0.206457 0.095184 0.000000
0.144075 0.093487 0.000000
0.168616 0.104070 0.000000
0.131918 0.128481 0.000000
0.149599 0.147010 0.000000
0.110895 0.144004 0.000000
0.119149 0.166306 0.000000
0.101974 0.186079 0.000000
0.092567 0.205540 0.000000
0.086629 0.229771 0.000000
0.105073 0.240071 0.000000
0.084554 0.257482 0.000000
0.099930 0.282496 0.000000
0.078474 0.278046 0.000000
0.100000 -0.075000 0.000000
0.100000 -0.050000 0.000000
0.100000 -0.025000 0.000000
0.100000 0.000000 0.000000
0.227704 0.025606 0.000000
0.203829 0.022560 0.000000
0.198369 0.048033 0.000000
0.237424 0.064200 0.000000
0.159829 0.037511 0.000000
0.264974 0.059484 0.000000
0.203550 0.064067 0.000000
0.233894 0.082928 0.000000
0.194595 0.111259 0.000000
0.219303 0.128814 0.000000
0.153017 0.121121 0.000000
0.192953 0.135530 0.000000
0.175532 0.143855 0.000000
0.157330 0.166333 0.000000
0.136423 0.177869 0.000000
0.121896 0.201276 0.000000
0.141853 0.213861 0.000000
0.123099 0.232970 0.000000
0.129185 0.261175 0.000000
0.120118 0.278400 0.000000
0.125000 -0.075000 0.000000
0.125000 -0.050000 0.000000
0.125000 -0.025000 0.000000
0.125000 0.000000 0.000000
0.303001 0.020915 0.000000
0.261806 0.021138 0.000000
0.336723 0.025235 0.000000
0.312818 0.037859 0.000000
0.335748 0.047925 0.000000
0.239132 0.042642 0.000000
0.269127 0.038117 0.000000
0.289311 0.071751 0.000000
0.251790 0.092955 0.000000
0.230530 0.114753 0.000000
0.257725 0.122741 0.000000
0.235231 0.150261 0.000000
0.201139 0.160986 0.000000
0.177923 0.180517 0.000000
0.181552 0.203689 0.000000
0.154984 0.198258 0.000000
0.189154 0.221251 0.000000
0.156975 0.230731 0.000000
0.165541 0.256497 0.000000
0.149795 0.255326 0.000000
0.150000 -0.075000 0.000000
0.150000 -0.050000 0.000000
0.150000 -0.025000 0.000000
0.150000 0.000000 0.000000
0.417056 0.019831 0.000000
0.371627 0.021282 0.000000
0.403276 0.036385 0.000000
0.362901 0.041354 0.000000
0.383095 0.046898 0.000000
0.431699 0.053797 0.000000
0.331622 0.066904 0.000000
0.377585 0.068171 0.000000
0.301966 0.058112 0.000000
0.334856 0.086838 0.000000
0.298267 0.091518 0.000000
0.272621 0.093753 0.000000
0.284640 0.117793 0.000000
0.258909 0.141472 0.000000
0.240915 0.167958 0.000000
0.226558 0.179688 0.000000
0.202866 0.178635 0.000000
0.217697 0.210781 0.000000
0.209920 0.236599 0.000000
0.184998 0.246129 0.000000
0.175000 -0.075000 0.000000
0.175000 -0.050000 0.000000
0.175000 -0.025000 0.000000
0.175000 0.000000 0.000000
0.524722 0.033082 0.000000
0.461151 0.023355 0.000000
0.494516 0.056444 0.000000
0.505666 0.022655 0.000000
0.482447 0.030069 0.000000
0.441319 0.034760 0.000000
0.470202 0.052149 0.000000
0.460902 0.073349 0.000000
0.413168 0.063088 0.000000
0.430698 0.079867 0.000000
0.355878 0.093019 0.000000
0.367390 0.107971 0.000000
0.315860 0.105796 0.000000
0.321042 0.126854 0.000000
0.288909 0.138853 0.000000
0.287586 0.157216 0.000000
0.278818 0.176134 0.000000
0.251124 0.198167 0.000000
0.242339 0.222649 0.000000
0.226832 0.229836 0.000000
0.200000 -0.075000 0.000000
0.200000 -0.050000 0.000000
0.200000 -0.025000 0.000000
0.200000 0.000000 0.000000
0.737500 0.041373 0.000000
0.595833 0.020669 0.000000
0.670788 0.034713 0.000000
0.547509 0.021515 0.000000
0.642028 0.020951 0.000000
0.629794 0.033690 0.000000
0.570517 0.038641 0.000000
0.540970 0.045303 0.000000
0.498110 0.071621 0.000000
0.486168 0.091324 0.000000
0.453607 0.089890 0.000000
0.387510 0.081604 0.000000
0.421490 0.097753 0.000000
0.393519 0.108006 0.000000
0.341006 0.115334 0.000000
0.364728 0.138362 0.000000
0.327918 0.146795 0.000000
0.314530 0.170551 0.000000
0.302939 0.187836 0.000000
0.261640 0.213041 0.000000
0.225000 -0.075000 0.000000
0.225000 -0.050000 0.000000
0.225000 -0.025000 0.000000
0.225000 0.000000 0.000000
0.756640 0.023514 0.000000
0.783434 0.056810 0.000000
0.720614 0.027693 0.000000
0.683629 0.066938 0.000000
0.694388 0.023685 0.000000
0.686338 0.085369 0.000000
0.689070 0.042424 0.000000
0.638273 0.053831 0.000000
0.590962 0.039024 0.000000
0.607044 0.062873 0.000000
0.575304 0.063627 0.000000
0.543021 0.063595 0.000000
0.528386 0.090097 0.000000
0.506254 0.104092 0.000000
0.453420 0.117298 0.000000
0.420501 0.128461 0.000000
0.398678 0.125700 0.000000
0.368110 0.158146 0.000000
0.333378 0.176440 0.000000
0.276126 0.195483 0.000000
0.250000 -0.075000 0.000000
0.250000 -0.050000 0.000000
0.250000 -0.025000 0.000000
0.250000 0.000000 0.000000
0.843722 0.035720 0.000000
0.841992 0.021390 0.000000
0.785755 0.023807 0.000000
0.815729 0.031013 0.000000
0.800222 0.038205 0.000000
0.761448 0.045370 0.000000
0.741708 0.072524 0.000000
0.731660 0.061026 0.000000
0.688186 0.098766 0.000000
0.663209 0.057564 0.000000
0.647280 0.092459 0.000000
0.634075 0.071415 0.000000
0.597666 0.079435 0.000000
0.583495 0.083072 0.000000
0.552642 0.089059 0.000000
0.522334 0.103242 0.000000
0.478566 0.124146 0.000000
0.437080 0.122356 0.000000
0.385034 0.144777 0.000000
0.344859 0.160766 0.000000
0.275000 -0.075000 0.000000
0.275000 -0.050000 0.000000
0.275000 -0.025000 0.000000
0.275000 0.000000 0.000000
0.300000 -0.075000 0.000000
0.300000 -0.050000 0.000000
0.300000 -0.025000 0.000000
0.300000 0.000000 0.000000
0.325000 -0.075000 0.000000
0.325000 -0.050000 0.000000
0.325000 -0.025000 0.000000
0.325000 0.000000 0.000000
0.350000 -0.075000 0.000000
0.350000 -0.050000 0.000000
0.350000 -0.025000 0.000000
0.350000 0.000000 0.000000
0.375000 -0.075000 0.000000
0.375000 -0.050000 0.000000
0.375000 -0.025000 0.000000
0.375000 0.000000 0.000000
0.400000 -0.075000 0.000000
0.400000 -0.050000 0.000000
0.400000 -0.025000 0.000000
0.400000 0.000000 0.000000
0.425000 -0.075000 0.000000
0.425000 -0.050000 0.000000
0.425000 -0.025000 0.000000
0.425000 0.000000 0.000000
0.450000 -0.075000 0.000000
0.450000 -0.050000 0.000000
0.450000 -0.025000 0.000000
0.450000 0.000000 0.000000
0.475000 -0.075000 0.000000
0.475000 -0.050000 0.000000
0.475000 -0.025000 0.000000
0.475000 0.000000 0.000000
0.500000 -0.075000 0.000000
0.500000 -0.050000 0.000000
0.500000 -0.025000 0.000000
0.500000 0.000000 0.000000
0.525000 -0.075000 0.000000
0.525000 -0.050000 0.000000
0.525000 -0.025000 0.000000
0.525000 0.000000 0.000000
0.550000 -0.075000 0.000000
0.550000 -0.050000 0.000000
0.550000 -0.025000 0.000000
0.550000 0.000000 0.000000
0.575000 -0.075000 0.000000
0.575000 -0.050000 0.000000
0.575000 -0.025000 0.000000
0.575000 0.000000 0.000000
0.600000 -0.075000 0.000000
0.600000 -0.050000 0.000000
0.600000 -0.025000 0.000000
0.600000 0.000000 0.000000
0.625000 -0.075000 0.000000
0.625000 -0.050000 0.000000
0.625000 -0.025000 0.000000
0.625000 0.000000 0.000000
0.650000 -0.075000 0.000000
0.650000 -0.050000 0.000000
0.650000 -0.025000 0.000000
0.650000 0.000000 0.000000
0.675000 -0.075000 0.000000
0.675000 -0.050000 0.000000
0.675000 -0.025000 0.000000
0.675000 0.000000 0.000000
0.700000 -0.075000 0.000000
0.700000 -0.050000 0.000000
0.700000 -0.025000 0.000000
0.700000 0.000000 0.000000
0.725000 -0.075000 0.000000
0.725000 -0.050000 0.000000
0.725000 -0.025000 0.000000
0.725000 0.000000 0.000000
0.750000 -0.075000 0.000000
0.750000 -0.050000 0.000000
0.750000 -0.025000 0.000000
0.750000 0.000000 0.000000
0.775000 -0.075000 0.000000
0.775000 -0.050000 0.000000
0.775000 -0.025000 0.000000
0.775000 0.000000 0.000000
0.800000 -0.075000 0.000000
0.800000 -0.050000 0.000000
0.800000 -0.025000 0.000000
0.800000 0.000000 0.000000
0.825000 -0.075000 0.000000
0.825000 -0.050000 0.000000
0.825000 -0.025000 0.000000
0.825000 0.000000 0.000000
0.850000 -0.075000 0.000000
0.850000 -0.050000 0.000000
0.850000 -0.025000 0.000000
0.850000 0.000000 0.000000
0.875000 -0.075000 0.000000
0.875000 -0.050000 0.000000
0.875000 -0.025000 0.000000
0.875000 0.000000 0.000000
0.900000 -0.075000 0.000000
0.900000 -0.050000 0.000000
0.900000 -0.025000 0.000000
0.900000 0.000000 0.000000
0.925000 -0.075000 0.000000
0.925000 -0.050000 0.000000
0.925000 -0.025000 0.000000
0.925000 0.000000 0.000000
0.950000 -0.075000 0.000000
0.950000 -0.050000 0.000000
0.950000 -0.025000 0.000000
0.950000 0.000000 0.000000
0.975000 -0.075000 0.000000
0.975000 -0.050000 0.000000
0.975000 -0.025000 0.000000
0.975000 0.000000 0.000000
1.000000 -0.075000 0.000000
1.000000 -0.050000 0.000000
1.000000 -0.025000 0.000000
1.000000 0.000000 0.000000
1.025000 -0.075000 0.000000
1.025000 -0.050000 0.000000
1.025000 -0.025000 0.000000
1.025000 0.000000 0.000000
1.025000 0.025000 0.000000
1.025000 0.050000 0.000000
1.025000 0.075000 0.000000
1.025000 0.100000 0.000000
1.025000 0.125000 0.000000
1.025000 0.150000 0.000000
1.025000 0.175000 0.000000
1.025000 0.200000 0.000000
1.025000 0.225000 0.000000
1.025000 0.250000 0.000000
1.025000 0.275000 0.000000
1.025000 0.300000 0.000000
1.025000 0.325000 0.000000
1.025000 0.350000 0.000000
1.025000 0.375000 0.000000
1.025000 0.400000 0.000000
1.025000 0.425000 0.000000
1.025000 0.450000 0.000000
1.025000 0.475000 0.000000
1.025000 0.500000 0.000000
1.025000 0.525000 0.000000
1.025000 0.550000 0.000000
1.025000 0.575000 0.000000
1.025000 0.600000 0.000000
1.050000 -0.075000 0.000000
1.050000 -0.050000 0.000000
1.050000 -0.025000 0.000000
1.050000 0.000000 0.000000
1.050000 0.025000 0.000000
1.050000 0.050000 0.000000
1.050000 0.075000 0.000000
1.050000 0.100000 0.000000
1.050000 0.125000 0.000000
1.050000 0.150000 0.000000
1.050000 0.175000 0.000000
1.050000 0.200000 0.000000
1.050000 0.225000 0.000000
1.050000 0.250000 0.000000
1.050000 0.275000 0.000000
1.050000 0.300000 0.000000
1.050000 0.325000 0.000000
1.050000 0.350000 0.000000
1.050000 0.375000 0.000000
1.050000 0.400000 0.000000
1.050000 0.425000 0.000000
1.050000 0.450000 0.000000
1.050000 0.475000 0.000000
1.050000 0.500000 0.000000
1.050000 0.525000 0.000000
1.050000 0.550000 0.000000
1.050000 0.575000 0.000000
1.050000 0.600000 0.000000
1.075000 -0.075000 0.000000
1.075000 -0.050000 0.000000
1.075000 -0.025000 0.000000
1.075000 0.000000 0.000000
1.075000 0.025000 0.000000
1.075000 0.050000 0.000000
1.075000 0.075000 0.000000
1.075000 0.100000 0.000000
1.075000 0.125000 0.000000
1.075000 0.150000 0.000000
1.075000 0.175000 0.000000
1.075000 0.200000 0.000000
1.075000 0.225000 0.000000
1.075000 0.250000 0.000000
1.075000 0.275000 0.000000
1.075000 0.300000 0.000000
1.075000 0.325000 0.000000
1.075000 0.350000 0.000000
1.075000 0.375000 0.000000
1.075000 0.400000 0.000000
1.075000 0.425000 0.000000
1.075000 0.450000 0.000000
1.075000 0.475000 0.000000
1.075000 0.500000 0.000000
1.075000 0.525000 0.000000
1.075000 0.550000 0.000000
1.075000 0.575000 0.000000
1.075000 0.600000 0.000000
1.100000 -0.075000 0.000000
1.100000 -0.050000 0.000000
1.100000 -0.025000 0.000000
1.100000 0.000000 0.000000
1.100000 0.025000 0.000000
1.100000 0.050000 0.000000
1.100000 0.075000 0.000000
1.100000 0.100000 0.000000
1.100000 0.125000 0.000000
1.100000 0.150000 0.000000
1.100000 0.175000 0.000000
1.100000 0.200000 0.000000
1.100000 0.225000 0.000000
1.100000 0.250000 0.000000
1.100000 0.275000 0.000000
1.100000 0.300000 0.000000
1.100000 0.325000 0.000000
1.100000 0.350000 0.000000
1.100000 0.375000 0.000000
1.100000 0.400000 0.000000
1.100000 0.425000 0.000000
1.100000 0.450000 0.000000
1.100000 0.475000 0.000000
1.100000 0.500000 0.000000
1.100000 0.525000 0.000000
1.100000 0.550000 0.000000
1.100000 0.575000 0.000000
1.100000 0.600000 0.000000
</DataArray>
</Points>
<PointData>
<DataArray NumberOfComponents='1' type='Int32' Name='ParticleType' format='ascii'>
3
3
3
3
3
3
3
3
3
3
3
3
3
3
3
3
3
3
3
3
3
3
3
3
3
3
2
2
3
3
3
3
3
3
3
3
3
3
3
3
3
3
3
3
3
3
3
3
3
3
3
3
3
3
2
2
3
3
2
2
2
2
2
2
2
2
2
2
2
2
2
2
2
2
2
2
2
2
2
2
2
2
2
2
3
3
2
2
2
2
2
2
2
2
2
2
2
2
2
2
2
2
2
2
2
2
2
2
2
2
2
2
3
3
2
2
0
0
0
0
0
0
0
0
0
0
0
0
0
0
0
0
0
0
0
0
3
3
2
2
0
0
0
0
0
0
0
0
0
0
0
0
0
0
0
0
0
0
0
0
3
3
2
2
0
0
0
0
0
0
0
0
0
0
0
0
0
0
0
0
0
0
0
0
3
3
2
2
0
0
0
0
0
0
0
0
0
0
0
0
0
0
0
0
0
0
0
0
3
3
2
2
0
0
0
0
0
0
0
0
0
0
0
0
0
0
0
0
0
0
0
0
3
3
2
2
0
0
0
0
0
0
0
0
0
0
0
0
0
0
0
0
0
0
0
0
3
3
2
2
0
0
0
0
0
0
0
0
0
0
0
0
0
0
0
0
0
0
0
0
3
3
2
2
0
0
0
0
0
0
0
0
0
0
0
0
0
0
0
0
0
0
0
0
3
3
2
2
0
0
0
0
0
0
0
0
0
0
0
0
0
0
0
0
0
0
0
0
3
3
2
2
0
0
0
0
0
0
0
0
0
0
0
0
0
0
0
0
0
0
0
0
3
3
2
2
3
3
2
2
3
3
2
2
3
3
2
2
3
3
2
2
3
3
2
2
3
3
2
2
3
3
2
2
3
3
2
2
3
3
2
2
3
3
2
2
3
3
2
2
3
3
2
2
3
3
2
2
3
3
2
2
3
3
2
2
3
3
2
2
3
3
2
2
3
3
2
2
3
3
2
2
3
3
2
2
3
3
2
2
3
3
2
2
3
3
2
2
3
3
2
2
3
3
2
2
3
3
2
2
3
3
2
2
3
3
2
2
3
3
2
2
3
3
2
2
2
2
2
2
2
2
2
2
2
2
2
2
2
2
2
2
2
2
2
2
2
2
2
2
3
3
2
2
2
2
2
2
2
2
2
2
2
2
2
2
2
2
2
2
2
2
2
2
2
2
2
2
3
3
3
3
3
3
3
3
3
3
3
3
3
3
3
3
3
3
3
3
3
3
3
3
3
3
2
2
3
3
3
3
3
3
3
3
3
3
3
3
3
3
3
3
3
3
3
3
3
3
3
3
3
3
2
2
</DataArray>
<DataArray NumberOfComponents='1' type='Float32' Name='Velocity' format='ascii'>
0.000000
0.000000
0.000000
0.000000
0.000000
0.000000
0.000000
0.000000
0.000000
0.000000
0.000000
0.000000
0.000000
0.000000
0.000000
0.000000
0.000000
0.000000
0.000000
0.000000
0.000000
0.000000
0.000000
0.000000
0.000000
0.000000
0.000000
0.000000
0.000000
0.000000
0.000000
0.000000
0.000000
0.000000
0.000000
0.000000
0.000000
0.000000
0.000000
0.000000
0.000000
0.000000
0.000000
0.000000
0.000000
0.000000
0.000000
0.000000
0.000000
0.000000
0.000000
0.000000
0.000000
0.000000
0.000000
0.000000
0.000000
0.000000
0.000000
0.000000
0.000000
0.000000
0.000000
0.000000
0.000000
0.000000
0.000000
0.000000
0.000000
0.000000
0.000000
0.000000
0.000000
0.000000
0.000000
0.000000
0.000000
0.000000
0.000000
0.000000
0.000000
0.000000
0.000000
0.000000
0.000000
0.000000
0.000000
0.000000
0.000000
0.000000
0.000000
0.000000
0.000000
0.000000
0.000000
0.000000
0.000000
0.000000
0.000000
0.000000
0.000000
0.000000
0.000000
0.000000
0.000000
0.000000
0.000000
0.000000
0.000000
0.000000
0.000000
0.000000
0.000000
0.000000
0.000000
0.000000
0.658979
0.244577
0.179653
0.226594
0.272123
0.251411
0.509539
0.741755
0.213125
0.612192
0.453238
0.712773
0.762268
0.740561
0.543539
0.642924
0.672294
0.687536
0.670171
0.748914
0.000000
0.000000
0.000000
0.000000
0.303506
0.167434
0.465072
0.578568
0.078576
0.465611
0.400027
0.317085
0.308462
0.638211
0.301545
0.527087
0.694908
0.340891
0.792775
0.603674
0.912332
0.848807
0.615786
0.898618
0.000000
0.000000
0.000000
0.000000
0.549168
0.529908
0.671497
0.383258
0.549612
1.130547
0.965947
0.415100
0.623255
0.845773
0.736573
0.377037
0.559853
0.534059
0.412411
0.198326
0.825257
0.556980
0.728686
0.906968
0.000000
0.000000
0.000000
0.000000
0.446439
0.295216
0.417408
1.101348
0.101841
0.801186
0.536710
0.975600
0.925685
0.896267
0.807398
0.943240
0.960405
0.665354
0.607224
0.513188
0.937708
0.842562
0.769677
1.017161
0.000000
0.000000
0.000000
0.000000
1.311260
0.583632
1.186929
1.433821
1.478886
0.744886
0.870668
1.261777
1.032998
0.783876
0.754144
1.098841
0.963407
0.287355
0.390233
0.922874
1.080774
0.724790
0.988389
1.193392
0.000000
0.000000
0.000000
0.000000
1.842502
1.415586
1.900096
1.662300
1.535828
2.111556
1.208192
1.709107
1.207103
1.448362
0.965922
1.139010
1.547126
1.459770
1.005448
0.680430
0.891076
1.249430
0.963869
1.183974
0.000000
0.000000
0.000000
0.000000
2.267233
1.852273
1.914364
2.740050
2.285846
2.001990
2.347652
2.357565
1.713008
2.281193
1.420407
1.736264
1.174768
1.391081
0.986538
1.363412
1.290570
1.145652
1.332550
1.517851
0.000000
0.000000
0.000000
0.000000
2.847571
2.657003
3.062255
2.393556
2.869415
2.630342
2.622782
2.529115
2.025526
2.431545
2.109045
1.670078
2.028735
1.788082
1.244033
1.824619
1.510612
1.424621
1.714030
1.280829
0.000000
0.000000
0.000000
0.000000
2.593683
2.903165
3.033573
2.429017
2.730701
2.745924
3.047680
2.839698
2.753375
2.793993
2.850079
2.550953
2.685845
2.456254
2.234850
1.843314
1.986556
1.979093
1.542806
1.371766
0.000000
0.000000
0.000000
0.000000
2.811909
3.305962
2.979534
3.159153
2.918342
2.926759
2.706986
2.687846
2.616638
2.675227
2.881721
2.861681
2.599004
3.014835
3.035354
2.605144
2.528183
1.914462
1.566959
1.665274
0.000000
0.000000
0.000000
0.000000
0.000000
0.000000
0.000000
0.000000
0.000000
0.000000
0.000000
0.000000
0.000000
0.000000
0.000000
0.000000
0.000000
0.000000
0.000000
0.000000
0.000000
0.000000
0.000000
0.000000
0.000000
0.000000
0.000000
0.000000
0.000000
0.000000
0.000000
0.000000
0.000000
0.000000
0.000000
0.000000
0.000000
0.000000
0.000000
0.000000
0.000000
0.000000
0.000000
0.000000
0.000000
0.000000
0.000000
0.000000
0.000000
0.000000
0.000000
0.000000
0.000000
0.000000
0.000000
0.000000
0.000000
0.000000
0.000000
0.000000
0.000000
0.000000
0.000000
0.000000
0.000000
0.000000
0.000000
0.000000
0.000000
0.000000
0.000000
0.000000
0.000000
0.000000
0.000000
0.000000
0.000000
0.000000
0.000000
0.000000
0.000000
0.000000
0.000000
0.000000
0.000000
0.000000
0.000000
0.000000
0.000000
0.000000
0.000000
0.000000
0.000000
0.000000
0.000000
0.000000
0.000000
0.000000
0.000000
0.000000
0.000000
0.000000
0.000000
0.000000
0.000000
0.000000
0.000000
0.000000
0.000000
0.000000
0.000000
0.000000
0.000000
0.000000
0.000000
0.000000
0.000000
0.000000
0.000000
0.000000
0.000000
0.000000
0.000000
0.000000
0.000000
0.000000
0.000000
0.000000
0.000000
0.000000
0.000000
0.000000
0.000000
0.000000
0.000000
0.000000
0.000000
0.000000
0.000000
0.000000
0.000000
0.000000
0.000000
0.000000
0.000000
0.000000
0.000000
0.000000
0.000000
0.000000
0.000000
0.000000
0.000000
0.000000
0.000000
0.000000
0.000000
0.000000
0.000000
0.000000
0.000000
0.000000
0.000000
0.000000
0.000000
0.000000
0.000000
0.000000
0.000000
0.000000
0.000000
0.000000
0.000000
0.000000
0.000000
0.000000
0.000000
0.000000
0.000000
0.000000
0.000000
0.000000
0.000000
0.000000
0.000000
0.000000
0.000000
0.000000
0.000000
0.000000
0.000000
0.000000
0.000000
0.000000
0.000000
0.000000
0.000000
0.000000
0.000000
0.000000
0.000000
0.000000
0.000000
0.000000
0.000000
0.000000
0.000000
0.000000
0.000000
0.000000
0.000000
0.000000
0.000000
0.000000
0.000000
0.000000
0.000000
0.000000
0.000000
0.000000
0.000000
0.000000
0.000000
0.000000
0.000000
0.000000
0.000000
0.000000
0.000000
0.000000
0.000000
0.000000
</DataArray>
<DataArray NumberOfComponents='1' type='Float32' Name='pressure' format='ascii'>
0.000000
0.000000
0.000000
0.000000
0.000000
0.000000
0.000000
0.000000
0.000000
0.000000
0.000000
0.000000
0.000000
0.000000
0.000000
0.000000
0.000000
0.000000
0.000000
0.000000
0.000000
0.000000
0.000000
0.000000
0.000000
0.000000
0.000000
0.000000
0.000000
0.000000
0.000000
0.000000
0.000000
0.000000
0.000000
0.000000
0.000000
0.000000
0.000000
0.000000
0.000000
0.000000
0.000000
0.000000
0.000000
0.000000
0.000000
0.000000
0.000000
0.000000
0.000000
0.000000
0.000000
0.000000
0.000000
0.000000
0.000000
0.000000
1029.293457
762.104065
0.000000
395.756775
1542.703125
2296.997314
591.840881
1171.232178
947.292053
14.557443
515.617859
1056.535156
0.000000
305.338440
0.000000
0.000000
0.000000
0.000000
0.000000
0.000000
0.000000
0.000000
0.000000
0.000000
0.000000
0.000000
0.000000
0.000000
1383.052124
745.034790
0.000000
326.333313
2679.006348
2839.271973
665.563538
1724.236084
233.974350
0.000000
31.840425
183.736786
0.000000
0.000000
0.000000
0.000000
0.000000
0.000000
0.000000
0.000000
0.000000
0.000000
0.000000
0.000000
0.000000
0.000000
0.000000
0.000000
2348.853271
1941.561401
871.555481
1726.756836
1091.987305
1946.236938
1665.827026
1812.265991
1589.652100
0.000000
2933.625977
1381.709351
1510.980713
1073.111328
946.992798
807.552612
196.002121
1247.120850
0.000000
124.560989
0.000000
0.000000
0.000000
0.000000
3045.563721
2376.310547
946.711487
552.584473
2327.893555
1479.397461
2022.074219
1708.120483
0.000000
1689.503784
1108.571899
2009.348389
492.233490
903.411133
1174.017944
1063.739258
843.131287
156.802933
865.086975
1142.312378
0.000000
0.000000
0.000000
0.000000
4115.722656
1930.085693
2179.895508
1300.873901
0.000000
1627.314697
393.993591
575.075317
889.695801
876.208374
622.241455
1880.842651
1224.704956
978.301208
755.912720
1067.910400
1247.375488
0.000000
940.689514
547.551697
0.000000
0.000000
0.000000
0.000000
4243.650391
2941.559082
1116.262573
603.645325
1678.862549
766.023865
1721.514038
0.000000
549.431702
1153.505737
1683.810181
494.896606
733.813538
625.939514
170.921875
2622.432373
2033.305176
0.000000
2435.918701
0.000000
0.000000
0.000000
0.000000
0.000000
3392.484619
98.301697
800.963867
3225.472656
576.638855
3042.878174
2792.531006
2016.980347
326.542023
1434.524048
1072.422729
0.000000
1327.842896
0.000000
870.375244
0.000000
0.000000
1314.714600
236.676987
285.736023
0.000000
63.102257
0.000000
0.000000
3996.412354
3587.540283
3638.093262
1555.421997
1830.000244
0.000000
2802.331787
1360.285278
810.440552
1416.795776
1433.177002
716.857727
384.722107
707.549133
0.000000
0.000000
932.181213
0.000000
934.214600
266.613739
0.000000
0.000000
0.000000
0.000000
1883.984619
759.764648
380.939880
2036.295898
0.000000
439.632935
1270.354736
0.000000
0.000000
1128.398804
0.000000
1716.148438
1003.419739
0.000000
1551.665894
452.265472
0.000000
1182.982422
0.000000
1929.850952
0.000000
2944.127930
0.000000
0.000000
3409.740723
3797.365723
0.000000
0.000000
1834.697876
349.118622
354.146027
406.574371
0.000000
875.681946
868.253601
0.000000
333.667969
0.000000
0.000000
1037.572632
0.000000
826.054382
1401.597412
742.636169
0.000000
0.000000
0.000000
0.000000
2758.382568
2660.860352
0.000000
0.000000
0.000000
0.000000
0.000000
0.000000
45.548573
719.258606
0.000000
0.000000
447.842621
0.000000
0.000000
0.000000
0.000000
0.000000
146.044449
0.000000
0.000000
0.000000
0.000000
0.000000
3697.326904
3013.716797
0.000000
0.000000
766.350586
0.000000
0.000000
0.000000
0.000000
0.000000
0.000000
526.910400
0.000000
0.000000
0.000000
0.000000
0.000000
0.000000
0.000000
0.000000
0.000000
0.000000
0.000000
0.000000
3471.078857
743.848877
0.000000
0.000000
3895.859619
3473.407227
0.000000
0.000000
2009.038086
665.010437
0.000000
0.000000
1744.600464
0.000000
0.000000
0.000000
3749.629395
2666.016602
0.000000
0.000000
3834.947754
1159.054443
0.000000
0.000000
4861.091797
4666.165527
0.000000
0.000000
2900.415771
1535.164795
0.000000
0.000000
2170.035400
1592.064819
0.000000
0.000000
2595.394531
2389.001953
0.000000
0.000000
1481.914307
1472.570557
0.000000
0.000000
2424.309814
897.497131
0.000000
0.000000
855.049011
0.000000
0.000000
0.000000
1944.782227
563.170532
0.000000
0.000000
456.363159
0.000000
0.000000
0.000000
912.990417
0.000000
0.000000
0.000000
0.000000
0.000000
0.000000
0.000000
0.000000
0.000000
0.000000
0.000000
0.000000
0.000000
0.000000
0.000000
0.000000
0.000000
0.000000
0.000000
0.000000
0.000000
0.000000
0.000000
0.000000
0.000000
0.000000
0.000000
0.000000
0.000000
0.000000
0.000000
638.204590
0.000000
0.000000
0.000000
0.000000
0.000000
0.000000
0.000000
0.000000
0.000000
0.000000
0.000000
0.000000
0.000000
0.000000
0.000000
0.000000
0.000000
0.000000
0.000000
0.000000
0.000000
0.000000
0.000000
0.000000
0.000000
0.000000
0.000000
0.000000
0.000000
0.000000
0.000000
0.000000
0.000000
0.000000
0.000000
0.000000
0.000000
0.000000
0.000000
0.000000
0.000000
0.000000
0.000000
0.000000
0.000000
0.000000
0.000000
0.000000
0.000000
0.000000
0.000000
0.000000
0.000000
0.000000
0.000000
0.000000
0.000000
0.000000
0.000000
0.000000
0.000000
0.000000
0.000000
0.000000
0.000000
0.000000
0.000000
0.000000
0.000000
0.000000
0.000000
0.000000
0.000000
0.000000
0.000000
0.000000
0.000000
0.000000
0.000000
0.000000
0.000000
0.000000
0.000000
0.000000
0.000000
0.000000
0.000000
0.000000
0.000000
0.000000
0.000000
0.000000
0.000000
0.000000
0.000000
0.000000
0.000000
0.000000
0.000000
0.000000
0.000000
0.000000
0.000000
0.000000
0.000000
0.000000
0.000000
0.000000
0.000000
0.000000
0.000000
0.000000
0.000000
0.000000
0.000000
0.000000
0.000000
0.000000
0.000000
0.000000
0.000000
0.000000
0.000000
0.000000
0.000000
0.000000
0.000000
0.000000
0.000000
0.000000
0.000000
0.000000
0.000000
0.000000
0.000000
0.000000
0.000000
</DataArray>
</PointData>
<Cells>
<DataArray type='Int32' Name='connectivity' format='ascii'>
0
1
2
3
4
5
6
7
8
9
10
11
12
13
14
15
16
17
18
19
20
21
22
23
24
25
26
27
28
29
30
31
32
33
34
35
36
37
38
39
40
41
42
43
44
45
46
47
48
49
50
51
52
53
54
55
56
57
58
59
60
61
62
63
64
65
66
67
68
69
70
71
72
73
74
75
76
77
78
79
80
81
82
83
84
85
86
87
88
89
90
91
92
93
94
95
96
97
98
99
100
101
102
103
104
105
106
107
108
109
110
111
112
113
114
115
116
117
118
119
120
121
122
123
124
125
126
127
128
129
130
131
132
133
134
135
136
137
138
139
140
141
142
143
144
145
146
147
148
149
150
151
152
153
154
155
156
157
158
159
160
161
162
163
164
165
166
167
168
169
170
171
172
173
174
175
176
177
178
179
180
181
182
183
184
185
186
187
188
189
190
191
192
193
194
195
196
197
198
199
200
201
202
203
204
205
206
207
208
209
210
211
212
213
214
215
216
217
218
219
220
221
222
223
224
225
226
227
228
229
230
231
232
233
234
235
236
237
238
239
240
241
242
243
244
245
246
247
248
249
250
251
252
253
254
255
256
257
258
259
260
261
262
263
264
265
266
267
268
269
270
271
272
273
274
275
276
277
278
279
280
281
282
283
284
285
286
287
288
289
290
291
292
293
294
295
296
297
298
299
300
301
302
303
304
305
306
307
308
309
310
311
312
313