<?xml version='1.0' encoding='UTF-8'?>
<VTKFile xmlns='VTK' byte_order='LittleEndian' version='0.1' type='UnstructuredGrid'>
<UnstructuredGrid>
<Piece NumberOfCells='584' NumberOfPoints='584'>
<Points>
<DataArray NumberOfComponents='3' type='Float32' Name='Position' format='ascii'>
-0.075000 -0.075000 0.000000
-0.075000 -0.050000 0.000000
-0.075000 -0.025000 0.000000
-0.075000 0.000000 0.000000
-0.075000 0.025000 0.000000
-0.075000 0.050000 0.000000
-0.075000 0.075000 0.000000
-0.075000 0.100000 0.000000
-0.075000 0.125000 0.000000
-0.075000 0.150000 0.000000
-0.075000 0.175000 0.000000
-0.075000 0.200000 0.000000
-0.075000 0.225000 0.000000
-0.075000 0.250000 0.000000
-0.075000 0.275000 0.000000
-0.075000 0.300000 0.000000
-0.075000 0.325000 0.000000
-0.075000 0.350000 0.000000
-0.075000 0.375000 0.000000
-0.075000 0.400000 0.000000
-0.075000 0.425000 0.000000
-0.075000 0.450000 0.000000
-0.075000 0.475000 0.000000
-0.075000 0.500000 0.000000
-0.075000 0.525000 0.000000
-0.075000 0.550000 0.000000
-0.075000 0.575000 0.000000
-0.075000 0.600000 0.000000
-0.050000 -0.075000 0.000000
-0.050000 -0.050000 0.000000
-0.050000 -0.025000 0.000000
-0.050000 0.000000 0.000000
-0.050000 0.025000 0.000000
-0.050000 0.050000 0.000000
-0.050000 0.075000 0.000000
-0.050000 0.100000 0.000000
-0.050000 0.125000 0.000000
-0.050000 0.150000 0.000000
-0.050000 0.175000 0.000000
-0.050000 0.200000 0.000000
-0.050000 0.225000 0.000000
-0.050000 0.250000 0.000000
-0.050000 0.275000 0.000000
-0.050000 0.300000 0.000000
-0.050000 0.325000 0.000000
-0.050000 0.350000 0.000000
-0.050000 0.375000 0.000000
-0.050000 0.400000 0.000000
-0.050000 0.425000 0.000000
-0.050000 0.450000 0.000000
-0.050000 0.475000 0.000000
-0.050000 0.500000 0.000000
-0.050000 0.525000 0.000000
-0.050000 0.550000 0.000000
-0.050000 0.575000 0.000000
-0.050000 0.600000 0.000000
-0.025000 -0.075000 0.000000
-0.025000 -0.050000 0.000000
-0.025000 -0.025000 0.000000
-0.025000 0.000000 0.000000
-0.025000 0.025000 0.000000
-0.025000 0.050000 0.000000
-0.025000 0.075000 0.000000
-0.025000 0.100000 0.000000
-0.025000 0.125000 0.000000
-0.025000 0.150000 0.000000
-0.025000 0.175000 0.000000
-0.025000 0.200000 0.000000
-0.025000 0.225000 0.000000
-0.025000 0.250000 0.000000
-0.025000 0.275000 0.000000
-0.025000 0.300000 0.000000
-0.025000 0.325000 0.000000
-0.025000 0.350000 0.000000
-0.025000 0.375000 0.000000
-0.025000 0.400000 0.000000
-0.025000 0.425000 0.000000
-0.025000 0.450000 0.000000
-0.025000 0.475000 0.000000
-0.025000 0.500000 0.000000
-0.025000 0.525000 0.000000
-0.025000 0.550000 0.000000
-0.025000 0.575000 0.000000
-0.025000 0.600000 0.000000
0.000000 -0.075000 0.000000
0.000000 -0.050000 0.000000
0.000000 -0.025000 0.000000
0.000000 0.000000 0.000000
0.000000 0.025000 0.000000
0.000000 0.050000 0.000000
0.000000 0.075000 0.000000
0.000000 0.100000 0.000000
0.000000 0.125000 0.000000
0.000000 0.150000 0.000000
0.000000 0.175000 0.000000
0.000000 0.200000 0.000000
0.000000 0.225000 0.000000
0.000000 0.250000 0.000000
0.000000 0.275000 0.000000
0.000000 0.300000 0.000000
0.000000 0.325000 0.000000
0.000000 0.350000 0.000000
0.000000 0.375000 0.000000
0.000000 0.400000 0.000000
0.000000 0.425000 0.000000
0.000000 0.450000 0.000000
0.000000 0.475000 0.000000
0.000000 0.500000 0.000000
0.000000 0.525000 0.000000
0.000000 0.550000 0.000000
0.000000 0.575000 0.000000
0.000000 0.600000 0.000000
0.025000 -0.075000 0.000000
0.025000 -0.050000 0.000000
0.025000 -0.025000 0.000000
0.025000 0.000000 0.000000
0.222719 0.066810 0.000000
0.142941 0.147081 0.000000
0.208697 0.044773 0.000000
0.212895 0.021753 0.000000
0.240103 0.046315 0.000000
0.139900 0.068817 0.000000
0.317927 0.022912 0.000000
0.236893 0.087541 0.000000
0.186407 0.118046 0.000000
0.170516 0.213173 0.000000
0.240430 0.025579 0.000000
0.116902 0.092016 0.000000
0.179432 0.022758 0.000000
0.146553 0.021766 0.000000
0.141614 0.120571 0.000000
0.078887 0.040487 0.000000
0.021520 0.146818 0.000000
0.094566 0.023880 0.000000
0.036411 0.108238 0.000000
0.194873 0.064644 0.000000
0.050000 -0.075000 0.000000
0.050000 -0.050000 0.000000
0.050000 -0.025000 0.000000
0.050000 0.000000 0.000000
0.102794 0.174888 0.000000
0.105979 0.116692 0.000000
0.083161 0.162260 0.000000
0.030537 0.021929 0.000000
0.021281 0.087439 0.000000
0.418928 0.064803 0.000000
0.211989 0.130894 0.000000
0.574057 0.024225 0.000000
0.090402 0.137291 0.000000
0.227355 0.232714 0.000000
0.126752 0.045346 0.000000
0.241387 0.142396 0.000000
0.024948 0.172140 0.000000
0.229554 0.250652 0.000000
0.155184 0.043812 0.000000
0.052157 0.046944 0.000000
0.210599 0.107748 0.000000
0.263149 0.090062 0.000000
0.098831 0.211272 0.000000
0.092941 0.059120 0.000000
0.075000 -0.075000 0.000000
0.075000 -0.050000 0.000000
0.075000 -0.025000 0.000000
0.075000 0.000000 0.000000
0.145127 0.090630 0.000000
0.175041 0.134317 0.000000
0.401596 0.085490 0.000000
0.351217 0.022397 0.000000
0.395738 0.114096 0.000000
0.580378 0.104750 0.000000
0.553751 0.104140 0.000000
0.054676 0.099764 0.000000
0.295326 0.110590 0.000000
0.555212 0.048333 0.000000
0.429531 0.022931 0.000000
0.089170 0.095592 0.000000
0.239317 0.109737 0.000000
0.240501 0.167031 0.000000
0.282414 0.084141 0.000000
0.077653 0.076365 0.000000
0.159360 0.107844 0.000000
0.054074 0.066871 0.000000
0.177568 0.092454 0.000000
0.180760 0.045125 0.000000
0.100000 -0.075000 0.000000
0.100000 -0.050000 0.000000
0.100000 -0.025000 0.000000
0.100000 0.000000 0.000000
0.475485 0.023039 0.000000
0.317711 0.206666 0.000000
0.471102 0.102173 0.000000
0.779391 0.023634 0.000000
0.249262 0.066216 0.000000
0.713027 0.022206 0.000000
0.533900 0.073253 0.000000
0.275304 0.046394 0.000000
0.654459 0.023483 0.000000
0.655494 0.046869 0.000000
0.449381 0.031170 0.000000
0.305025 0.132535 0.000000
0.488574 0.065803 0.000000
0.619443 0.045722 0.000000
0.069789 0.178448 0.000000
0.267884 0.023459 0.000000
0.508379 0.056096 0.000000
0.288796 0.059941 0.000000
0.322111 0.102200 0.000000
0.136392 0.213914 0.000000
0.125000 -0.075000 0.000000
0.125000 -0.050000 0.000000
0.125000 -0.025000 0.000000
0.125000 0.000000 0.000000
0.683510 0.045007 0.000000
0.602848 0.067552 0.000000
0.981610 0.066947 0.000000
0.835847 0.020543 0.000000
0.512971 0.081111 0.000000
0.602904 0.023678 0.000000
0.099776 0.197389 0.000000
0.438826 0.052396 0.000000
0.776979 0.075912 0.000000
0.727560 0.063283 0.000000
0.822053 0.066065 0.000000
0.474993 0.047222 0.000000
0.498455 0.030006 0.000000
0.345814 0.144877 0.000000
0.399260 0.022772 0.000000
0.371583 0.138237 0.000000
0.221386 0.177283 0.000000
0.163922 0.066410 0.000000
0.382163 0.129104 0.000000
0.068264 0.137689 0.000000
0.150000 -0.075000 0.000000
0.150000 -0.050000 0.000000
0.150000 -0.025000 0.000000
0.150000 0.000000 0.000000
0.175683 0.184086 0.000000
0.960303 0.025470 0.000000
0.644724 0.066307 0.000000
0.314581 0.045887 0.000000
0.886802 0.030053 0.000000
0.201290 0.087681 0.000000
0.898903 0.056020 0.000000
0.432179 0.139475 0.000000
0.950397 0.066268 0.000000
0.453356 0.125803 0.000000
0.926569 0.025143 0.000000
0.682851 0.022639 0.000000
0.852053 0.069739 0.000000
0.803101 0.087727 0.000000
0.758822 0.025455 0.000000
0.571612 0.068323 0.000000
0.627170 0.028011 0.000000
0.603111 0.085201 0.000000
0.619283 0.090311 0.000000
0.272045 0.159453 0.000000
0.175000 -0.075000 0.000000
0.175000 -0.050000 0.000000
0.175000 -0.025000 0.000000
0.175000 0.000000 0.000000
0.119596 0.132304 0.000000
0.521354 0.100331 0.000000
0.866098 0.056122 0.000000
0.773904 0.057847 0.000000
0.993891 0.022100 0.000000
0.156363 0.173084 0.000000
0.865551 0.025818 0.000000
0.361729 0.046682 0.000000
0.388656 0.057595 0.000000
0.906438 0.030657 0.000000
0.462157 0.067513 0.000000
0.743059 0.076352 0.000000
0.343638 0.098201 0.000000
0.943691 0.031798 0.000000
0.981140 0.038862 0.000000
0.410110 0.045209 0.000000
1.005075 0.050195 0.000000
0.450146 0.080214 0.000000
0.115675 0.157575 0.000000
0.353177 0.120280 0.000000
0.200000 -0.075000 0.000000
0.200000 -0.050000 0.000000
0.200000 -0.025000 0.000000
0.200000 0.000000 0.000000
0.328319 0.130509 0.000000
0.117052 0.028902 0.000000
0.275145 0.117213 0.000000
0.812083 0.026110 0.000000
0.371222 0.073751 0.000000
0.310255 0.188069 0.000000
0.589276 0.045074 0.000000
0.977147 0.078663 0.000000
0.334381 0.157295 0.000000
0.073886 0.110876 0.000000
0.788365 0.045769 0.000000
0.642043 0.081402 0.000000
0.063439 0.022286 0.000000
0.434179 0.158827 0.000000
0.519512 0.021666 0.000000
0.189010 0.199088 0.000000
0.698589 0.064397 0.000000
0.350012 0.197971 0.000000
0.844142 0.047722 0.000000
0.677225 0.063024 0.000000
0.225000 -0.075000 0.000000
0.225000 -0.050000 0.000000
0.225000 -0.025000 0.000000
0.225000 0.000000 0.000000
0.324536 0.069263 0.000000
0.816044 0.049824 0.000000
0.518239 0.115308 0.000000
0.247850 0.228001 0.000000
0.052711 0.178429 0.000000
0.086660 0.219614 0.000000
0.422745 0.127187 0.000000
0.882881 0.071155 0.000000
0.530802 0.045133 0.000000
0.035366 0.128515 0.000000
0.559037 0.080070 0.000000
0.205698 0.210403 0.000000
0.376997 0.030069 0.000000
0.421068 0.095205 0.000000
0.113182 0.072110 0.000000
0.196403 0.161251 0.000000
0.492343 0.108140 0.000000
0.023516 0.042659 0.000000
0.254643 0.124653 0.000000
0.337947 0.044284 0.000000
0.250000 -0.075000 0.000000
0.250000 -0.050000 0.000000
0.250000 -0.025000 0.000000
0.250000 0.000000 0.000000
0.729649 0.032051 0.000000
0.329916 0.193320 0.000000
0.222083 0.213000 0.000000
0.308268 0.082546 0.000000
0.291897 0.027608 0.000000
0.295677 0.170514 0.000000
0.137584 0.168114 0.000000
0.270034 0.181923 0.000000
0.254334 0.181940 0.000000
0.438742 0.106443 0.000000
0.216055 0.151950 0.000000
0.049763 0.148210 0.000000
0.172201 0.157552 0.000000
0.552452 0.027947 0.000000
0.381377 0.096363 0.000000
0.350886 0.077381 0.000000
0.289426 0.146621 0.000000
0.742897 0.046410 0.000000
0.030193 0.066977 0.000000
0.473548 0.119538 0.000000
0.275000 -0.075000 0.000000
0.275000 -0.050000 0.000000
0.275000 -0.025000 0.000000
0.275000 0.000000 0.000000
0.300000 -0.075000 0.000000
0.300000 -0.050000 0.000000
0.300000 -0.025000 0.000000
0.300000 0.000000 0.000000
0.325000 -0.075000 0.000000
0.325000 -0.050000 0.000000
0.325000 -0.025000 0.000000
0.325000 0.000000 0.000000
0.350000 -0.075000 0.000000
0.350000 -0.050000 0.000000
0.350000 -0.025000 0.000000
0.350000 0.000000 0.000000
0.375000 -0.075000 0.000000
0.375000 -0.050000 0.000000
0.375000 -0.025000 0.000000
0.375000 0.000000 0.000000
0.400000 -0.075000 0.000000
0.400000 -0.050000 0.000000
0.400000 -0.025000 0.000000
0.400000 0.000000 0.000000
0.425000 -0.075000 0.000000
0.425000 -0.050000 0.000000
0.425000 -0.025000 0.000000
0.425000 0.000000 0.000000
0.450000 -0.075000 0.000000
0.450000 -0.050000 0.000000
0.450000 -0.025000 0.000000
0.450000 0.000000 0.000000
0.475000 -0.075000 0.000000
0.475000 -0.050000 0.000000
0.475000 -0.025000 0.000000
0.475000 0.000000 0.000000
0.500000 -0.075000 0.000000
0.500000 -0.050000 0.000000
0.500000 -0.025000 0.000000
0.500000 0.000000 0.000000
0.525000 -0.075000 0.000000
0.525000 -0.050000 0.000000
0.525000 -0.025000 0.000000
0.525000 0.000000 0.000000
0.550000 -0.075000 0.000000
0.550000 -0.050000 0.000000
0.550000 -0.025000 0.000000
0.550000 0.000000 0.000000
0.575000 -0.075000 0.000000
0.575000 -0.050000 0.000000
0.575000 -0.025000 0.000000
0.575000 0.000000 0.000000
0.600000 -0.075000 0.000000
0.600000 -0.050000 0.000000
0.600000 -0.025000 0.000000
0.600000 0.000000 0.000000
0.625000 -0.075000 0.000000
0.625000 -0.050000 0.000000
0.625000 -0.025000 0.000000
0.625000 0.000000 0.000000
0.650000 -0.075000 0.000000
0.650000 -0.050000 0.000000
0.650000 -0.025000 0.000000
0.650000 0.000000 0.000000
0.675000 -0.075000 0.000000
0.675000 -0.050000 0.000000
0.675000 -0.025000 0.000000
0.675000 0.000000 0.000000
0.700000 -0.075000 0.000000
0.700000 -0.050000 0.000000
0.700000 -0.025000 0.000000
0.700000 0.000000 0.000000
0.725000 -0.075000 0.000000
0.725000 -0.050000 0.000000
0.725000 -0.025000 0.000000
0.725000 0.000000 0.000000
0.750000 -0.075000 0.000000
0.750000 -0.050000 0.000000
0.750000 -0.025000 0.000000
0.750000 0.000000 0.000000
0.775000 -0.075000 0.000000
0.775000 -0.050000 0.000000
0.775000 -0.025000 0.000000
0.775000 0.000000 0.000000
0.800000 -0.075000 0.000000
0.800000 -0.050000 0.000000
0.800000 -0.025000 0.000000
0.800000 0.000000 0.000000
0.825000 -0.075000 0.000000
0.825000 -0.050000 0.000000
0.825000 -0.025000 0.000000
0.825000 0.000000 0.000000
0.850000 -0.075000 0.000000
0.850000 -0.050000 0.000000
0.850000 -0.025000 0.000000
0.850000 0.000000 0.000000
0.875000 -0.075000 0.000000
0.875000 -0.050000 0.000000
0.875000 -0.025000 0.000000
0.875000 0.000000 0.000000
0.900000 -0.075000 0.000000
0.900000 -0.050000 0.000000
0.900000 -0.025000 0.000000
0.900000 0.000000 0.000000
0.925000 -0.075000 0.000000
0.925000 -0.050000 0.000000
0.925000 -0.025000 0.000000
0.925000 0.000000 0.000000
0.950000 -0.075000 0.000000
0.950000 -0.050000 0.000000
0.950000 -0.025000 0.000000
0.950000 0.000000 0.000000
0.975000 -0.075000 0.000000
0.975000 -0.050000 0.000000
0.975000 -0.025000 0.000000
0.975000 0.000000 0.000000
1.000000 -0.075000 0.000000
1.000000 -0.050000 0.000000
1.000000 -0.025000 0.000000
1.000000 0.000000 0.000000
1.025000 -0.075000 0.000000
1.025000 -0.050000 0.000000
1.025000 -0.025000 0.000000
1.025000 0.000000 0.000000
1.025000 0.025000 0.000000
1.025000 0.050000 0.000000
1.025000 0.075000 0.000000
1.025000 0.100000 0.000000
1.025000 0.125000 0.000000
1.025000 0.150000 0.000000
1.025000 0.175000 0.000000
1.025000 0.200000 0.000000
1.025000 0.225000 0.000000
1.025000 0.250000 0.000000
1.025000 0.275000 0.000000
1.025000 0.300000 0.000000
1.025000 0.325000 0.000000
1.025000 0.350000 0.000000
1.025000 0.375000 0.000000
1.025000 0.400000 0.000000
1.025000 0.425000 0.000000
1.025000 0.450000 0.000000
1.025000 0.475000 0.000000
1.025000 0.500000 0.000000
1.025000 0.525000 0.000000
1.025000 0.550000 0.000000
1.025000 0.575000 0.000000
1.025000 0.600000 0.000000
1.050000 -0.075000 0.000000
1.050000 -0.050000 0.000000
1.050000 -0.025000 0.000000
1.050000 0.000000 0.000000
1.050000 0.025000 0.000000
1.050000 0.050000 0.000000
1.050000 0.075000 0.000000
1.050000 0.100000 0.000000
1.050000 0.125000 0.000000
1.050000 0.150000 0.000000
1.050000 0.175000 0.000000
1.050000 0.200000 0.000000
1.050000 0.225000 0.000000
1.050000 0.250000 0.000000
1.050000 0.275000 0.000000
1.050000 0.300000 0.000000
1.050000 0.325000 0.000000
1.050000 0.350000 0.000000
1.050000 0.375000 0.000000
1.050000 0.400000 0.000000
1.050000 0.425000 0.000000
1.050000 0.450000 0.000000
1.050000 0.475000 0.000000
1.050000 0.500000 0.000000
1.050000 0.525000 0.000000
1.050000 0.550000 0.000000
1.050000 0.575000 0.000000
1.050000 0.600000 0.000000
1.075000 -0.075000 0.000000
1.075000 -0.050000 0.000000
1.075000 -0.025000 0.000000
1.075000 0.000000 0.000000
1.075000 0.025000 0.000000
1.075000 0.050000 0.000000
1.075000 0.075000 0.000000
1.075000 0.100000 0.000000
1.075000 0.125000 0.000000
1.075000 0.150000 0.000000
1.075000 0.175000 0.000000
1.075000 0.200000 0.000000
1.075000 0.225000 0.000000
1.075000 0.250000 0.000000
1.075000 0.275000 0.000000
1.075000 0.300000 0.000000
1.075000 0.325000 0.000000
1.075000 0.350000 0.000000
1.075000 0.375000 0.000000
1.075000 0.400000 0.000000
1.075000 0.425000 0.000000
1.075000 0.450000 0.000000
1.075000 0.475000 0.000000
1.075000 0.500000 0.000000
1.075000 0.525000 0.000000
1.075000 0.550000 0.000000
1.075000 0.575000 0.000000
1.075000 0.600000 0.000000
1.100000 -0.075000 0.000000
1.100000 -0.050000 0.000000
1.100000 -0.025000 0.000000
1.100000 0.000000 0.000000
1.100000 0.025000 0.000000
1.100000 0.050000 0.000000
1.100000 0.075000 0.000000
1.100000 0.100000 0.000000
1.100000 0.125000 0.000000
1.100000 0.150000 0.000000
1.100000 0.175000 0.000000
1.100000 0.200000 0.000000
1.100000 0.225000 0.000000
1.100000 0.250000 0.000000
1.100000 0.275000 0.000000
1.100000 0.300000 0.000000
1.100000 0.325000 0.000000
1.100000 0.350000 0.000000
1.100000 0.375000 0.000000
1.100000 0.400000 0.000000
1.100000 0.425000 0.000000
1.100000 0.450000 0.000000
1.100000 0.475000 0.000000
1.100000 0.500000 0.000000
1.100000 0.525000 0.000000
1.100000 0.550000 0.000000
1.100000 0.575000 0.000000
1.100000 0.600000 0.000000
</DataArray>
</Points>
<PointData>
<DataArray NumberOfComponents='1' type='Int32' Name='ParticleType' format='ascii'>
3
3
3
3
3
3
3
3
3
3
3
3
3
3
3
3
3
3
3
3
3
3
3
3
3
3
2
2
3
3
3
3
3
3
3
3
3
3
3
3
3
3
3
3
3
3
3
3
3
3
3
3
3
3
2
2
3
3
2
2
2
2
2
2
2
2
2
2
2
2
2
2
2
2
2
2
2
2
2
2
2
2
2
2
3
3
2
2
2
2
2
2
2
2
2
2
2
2
2
2
2
2
2
2
2
2
2
2
2
2
2
2
3
3
2
2
0
0
0
0
0
0
0
0
0
0
0
0
0
0
0
0
0
0
0
0
3
3
2
2
0
0
0
0
0
0
0
0
0
0
0
0
0
0
0
0
0
0
0
0
3
3
2
2
0
0
0
0
0
0
0
0
0
0
0
0
0
0
0
0
0
0
0
0
3
3
2
2
0
0
0
0
0
0
0
0
0
0
0
0
0
0
0
0
0
0
0
0
3
3
2
2
0
0
0
0
0
0
0
0
0
0
0
0
0
0
0
0
0
0
0
0
3
3
2
2
0
0
0
0
0
0
0
0
0
0
0
0
0
0
0
0
0
0
0
0
3
3
2
2
0
0
0
0
0
0
0
0
0
0
0
0
0
0
0
0
0
0
0
0
3
3
2
2
0
0
0
0
0
0
0
0
0
0
0
0
0
0
0
0
0
0
0
0
3
3
2
2
0
0
0
0
0
0
0
0
0
0
0
0
0
0
0
0
0
0
0
0
3
3
2
2
0
0
0
0
0
0
0
0
0
0
0
0
0
0
0
0
0
0
0
0
3
3
2
2
3
3
2
2
3
3
2
2
3
3
2
2
3
3
2
2
3
3
2
2
3
3
2
2
3
3
2
2
3
3
2
2
3
3
2
2
3
3
2
2
3
3
2
2
3
3
2
2
3
3
2
2
3
3
2
2
3
3
2
2
3
3
2
2
3
3
2
2
3
3
2
2
3
3
2
2
3
3
2
2
3
3
2
2
3
3
2
2
3
3
2
2
3
3
2
2
3
3
2
2
3
3
2
2
3
3
2
2
3
3
2
2
3
3
2
2
3
3
2
2
2
2
2
2
2
2
2
2
2
2
2
2
2
2
2
2
2
2
2
2
2
2
2
2
3
3
2
2
2
2
2
2
2
2
2
2
2
2
2
2
2
2
2
2
2
2
2
2
2
2
2
2
3
3
3
3
3
3
3
3
3
3
3
3
3
3
3
3
3
3
3
3
3
3
3
3
3
3
2
2
3
3
3
3
3
3
3
3
3
3
3
3
3
3
3
3
3
3
3
3
3
3
3
3
3
3
2
2
</DataArray>
<DataArray NumberOfComponents='1' type='Float32' Name='Velocity' format='ascii'>
0.000000
0.000000
0.000000
0.000000
0.000000
0.000000
0.000000
0.000000
0.000000
0.000000
0.000000
0.000000
0.000000
0.000000
0.000000
0.000000
0.000000
0.000000
0.000000
0.000000
0.000000
0.000000
0.000000
0.000000
0.000000
0.000000
0.000000
0.000000
0.000000
0.000000
0.000000
0.000000
0.000000
0.000000
0.000000
0.000000
0.000000
0.000000
0.000000
0.000000
0.000000
0.000000
0.000000
0.000000
0.000000
0.000000
0.000000
0.000000
0.000000
0.000000
0.000000
0.000000
0.000000
0.000000
0.000000
0.000000
0.000000
0.000000
0.000000
0.000000
0.000000
0.000000
0.000000
0.000000
0.000000
0.000000
0.000000
0.000000
0.000000
0.000000
0.000000
0.000000
0.000000
0.000000
0.000000
0.000000
0.000000
0.000000
0.000000
0.000000
0.000000
0.000000
0.000000
0.000000
0.000000
0.000000
0.000000
0.000000
0.000000
0.000000
0.000000
0.000000
0.000000
0.000000
0.000000
0.000000
0.000000
0.000000
0.000000
0.000000
0.000000
0.000000
0.000000
0.000000
0.000000
0.000000
0.000000
0.000000
0.000000
0.000000
0.000000
0.000000
0.000000
0.000000
0.000000
0.000000
0.411206
0.423711
0.598850
0.276823
0.348741
0.559180
0.160100
0.415369
0.412603
0.198543
0.292294
0.685705
0.373611
0.587066
0.192361
0.393023
0.043692
0.126257
0.299847
0.576300
0.000000
0.000000
0.000000
0.000000
0.306795
0.568673
0.283415
0.259068
0.141740
0.260226
0.295114
0.431325
0.420862
0.656990
0.509678
0.393041
0.913305
0.824576
0.514903
0.251326
0.410825
0.545875
0.395405
0.238182
0.000000
0.000000
0.000000
0.000000
0.639675
0.297490
0.611427
0.491875
0.517803
0.735018
0.559888
0.496667
0.121561
0.141337
0.199565
0.229227
0.434392
0.145363
0.612511
0.580255
0.098675
0.238595
0.276585
0.505956
0.000000
0.000000
0.000000
0.000000
0.327638
0.447619
0.505817
0.109761
0.377656
0.198550
0.299679
0.404168
0.145385
0.044531
0.078266
0.217130
0.443374
0.284706
0.507379
0.297152
0.470488
0.211548
0.504028
0.084712
0.000000
0.000000
0.000000
0.000000
0.248805
0.374392
0.118207
0.145136
0.147809
0.249189
0.595060
0.463935
0.333906
0.180679
0.235735
0.266254
0.249544
0.162998
0.367064
0.442628
0.262533
0.385120
0.105709
0.541992
0.000000
0.000000
0.000000
0.000000
0.361638
0.139945
0.285046
0.668492
0.074776
0.365994
0.138393
0.568117
0.212907
0.499097
0.101917
0.309061
0.200731
0.170505
0.073576
0.288901
0.288606
0.328383
0.186894
0.490849
0.000000
0.000000
0.000000
0.000000
0.423153
0.376734
0.084380
0.211207
0.187838
0.632860
0.168827
0.354394
0.328287
0.177035
0.159536
0.178807
0.366625
0.154903
0.134292
0.325809
0.095263
0.147461
0.223080
0.187028
0.000000
0.000000
0.000000
0.000000
0.006671
0.382927
0.279257
0.093195
0.471136
0.732165
0.141369
0.109890
0.354602
0.576851
0.148171
0.263716
0.109567
0.379350
0.045098
0.689666
0.116530
0.487181
0.027264
0.243032
0.000000
0.000000
0.000000
0.000000
0.508802
0.180163
0.316790
0.951895
0.376450
0.223447
0.570660
0.324427
0.169205
0.434666
0.249302
1.518981
0.249969
0.363676
0.551812
0.409678
0.208117
0.305065
0.250090
0.383032
0.000000
0.000000
0.000000
0.000000
0.168415
0.437512
0.983847
0.275342
0.512560
0.273287
0.152840
0.378632
0.371571
0.301215
0.647965
0.300730
0.146289
0.303150
0.489211
0.487248
0.515527
0.052313
0.555891
0.175376
0.000000
0.000000
0.000000
0.000000
0.000000
0.000000
0.000000
0.000000
0.000000
0.000000
0.000000
0.000000
0.000000
0.000000
0.000000
0.000000
0.000000
0.000000
0.000000
0.000000
0.000000
0.000000
0.000000
0.000000
0.000000
0.000000
0.000000
0.000000
0.000000
0.000000
0.000000
0.000000
0.000000
0.000000
0.000000
0.000000
0.000000
0.000000
0.000000
0.000000
0.000000
0.000000
0.000000
0.000000
0.000000
0.000000
0.000000
0.000000
0.000000
0.000000
0.000000
0.000000
0.000000
0.000000
0.000000
0.000000
0.000000
0.000000
0.000000
0.000000
0.000000
0.000000
0.000000
0.000000
0.000000
0.000000
0.000000
0.000000
0.000000
0.000000
0.000000
0.000000
0.000000
0.000000
0.000000
0.000000
0.000000
0.000000
0.000000
0.000000
0.000000
0.000000
0.000000
0.000000
0.000000
0.000000
0.000000
0.000000
0.000000
0.000000
0.000000
0.000000
0.000000
0.000000
0.000000
0.000000
0.000000
0.000000
0.000000
0.000000
0.000000
0.000000
0.000000
0.000000
0.000000
0.000000
0.000000
0.000000
0.000000
0.000000
0.000000
0.000000
0.000000
0.000000
0.000000
0.000000
0.000000
0.000000
0.000000
0.000000
0.000000
0.000000
0.000000
0.000000
0.000000
0.000000
0.000000
0.000000
0.000000
0.000000
0.000000
0.000000
0.000000
0.000000
0.000000
0.000000
0.000000
0.000000
0.000000
0.000000
0.000000
0.000000
0.000000
0.000000
0.000000
0.000000
0.000000
0.000000
0.000000
0.000000
0.000000
0.000000
0.000000
0.000000
0.000000
0.000000
0.000000
0.000000
0.000000
0.000000
0.000000
0.000000
0.000000
0.000000
0.000000
0.000000
0.000000
0.000000
0.000000
0.000000
0.000000
0.000000
0.000000
0.000000
0.000000
0.000000
0.000000
0.000000
0.000000
0.000000
0.000000
0.000000
0.000000
0.000000
0.000000
0.000000
0.000000
0.000000
0.000000
0.000000
0.000000
0.000000
0.000000
0.000000
0.000000
0.000000
0.000000
0.000000
0.000000
0.000000
0.000000
0.000000
0.000000
0.000000
0.000000
0.000000
0.000000
0.000000
0.000000
0.000000
0.000000
0.000000
0.000000
0.000000
0.000000
0.000000
0.000000
0.000000
0.000000
0.000000
0.000000
0.000000
0.000000
0.000000
0.000000
0.000000
0.000000
0.000000
0.000000
0.000000
0.000000
0.000000
</DataArray>
<DataArray NumberOfComponents='1' type='Float32' Name='pressure' format='ascii'>
0.000000
0.000000
0.000000
0.000000
0.000000
0.000000
0.000000
0.000000
0.000000
0.000000
0.000000
0.000000
0.000000
0.000000
0.000000
0.000000
0.000000
0.000000
0.000000
0.000000
0.000000
0.000000
0.000000
0.000000
0.000000
0.000000
0.000000
0.000000
0.000000
0.000000
0.000000
0.000000
0.000000
0.000000
0.000000
0.000000
0.000000
0.000000
0.000000
0.000000
0.000000
0.000000
0.000000
0.000000
0.000000
0.000000
0.000000
0.000000
0.000000
0.000000
0.000000
0.000000
0.000000
0.000000
0.000000
0.000000
0.000000
0.000000
2540.228516
2285.834473
1632.394531
2482.108643
2768.465820
2321.382324
1017.203125
2416.829834
573.113770
0.000000
0.000000
0.000000
0.000000
0.000000
0.000000
0.000000
0.000000
0.000000
0.000000
0.000000
0.000000
0.000000
0.000000
0.000000
0.000000
0.000000
0.000000
0.000000
2819.293457
2371.672852
864.707642
2369.070312
2630.501221
0.000000
0.000000
3266.196533
0.000000
0.000000
0.000000
0.000000
0.000000
0.000000
0.000000
0.000000
0.000000
0.000000
0.000000
0.000000
0.000000
0.000000
0.000000
0.000000
0.000000
0.000000
0.000000
0.000000
4044.264648
3783.747070
1641.602173
1193.734619
863.455505
1096.416504
1404.245728
2488.799316
1918.646973
1349.210205
1598.951538
0.000000
1034.876953
480.510773
342.904144
793.588440
0.000000
2568.511230
871.946655
1886.870117
1387.612305
869.242676
0.000000
0.000000
3883.458252
2133.718262
0.000000
410.805176
2540.078125
1839.322510
1227.722778
1816.389160
292.008118
1202.922485
758.125549
0.000000
872.090210
0.000000
0.000000
0.000000
1790.135132
1112.699707
245.695786
2051.941406
0.000000
821.466003
0.000000
0.000000
3269.729248
3135.533936
180.349594
0.000000
2312.551270
1331.504883
0.000000
0.000000
0.000000
0.000000
620.103943
1800.849731
2004.003174
3419.941895
789.914673
2857.281006
927.146179
762.459229
1793.110474
1731.332520
280.429840
2362.796143
0.000000
0.000000
2656.331543
1999.937012
2983.467773
0.000000
691.423340
1305.297241
0.000000
0.000000
0.000000
1331.198120
0.000000
378.013977
2424.834961
0.000000
0.000000
0.000000
0.000000
1421.104980
1588.893555
953.568665
867.350647
0.000000
0.000000
0.000000
1806.194214
417.605957
1058.077515
1754.870728
0.000000
462.305847
409.199524
293.963348
976.355225
602.575562
0.000000
0.000000
0.000000
2280.621826
2394.552734
0.000000
2349.728271
0.000000
0.000000
750.936890
0.000000
2170.958740
0.000000
0.000000
3585.572510
3122.553223
0.000000
903.440796
131.410767
1957.731201
1247.977661
1106.551880
0.000000
0.000000
0.000000
0.000000
1997.274292
716.742493
0.000000
0.000000
0.000000
1228.253662
993.796875
0.000000
0.000000
1741.615845
0.000000
0.000000
3388.734375
2827.799316
1459.562866
934.256104
800.076477
0.000000
0.000000
937.696350
0.000000
1976.805542
310.145142
0.000000
1948.287231
0.000000
0.000000
0.000000
0.000000
2863.975342
0.000000
613.613708
1089.885498
1747.152222
0.000000
0.000000
3186.539551
1934.353638
424.587036
2383.955322
701.167908
0.000000
1432.478760
0.000000
0.000000
0.000000
0.000000
1876.171875
164.443741
0.000000
1991.453125
0.000000
1448.183472
0.000000
0.000000
0.000000
0.000000
0.000000
0.000000
0.000000
2816.834473
2220.926514
902.287292
1168.881958
0.000000
0.000000
0.000000
0.000000
520.162842
0.000000
931.012939
1644.689209
0.000000
0.000000
2741.785400
1432.446289
867.233826
0.000000
0.000000
3298.599609
721.799744
1295.580933
0.000000
0.000000
1809.565186
1280.955078
1101.209106
0.000000
0.000000
1914.524170
612.324646
0.000000
0.000000
0.000000
0.000000
4312.590820
2104.528076
0.000000
2259.129639
2752.328369
885.504456
1162.883911
0.000000
0.000000
2200.485107
0.000000
0.000000
0.000000
2301.173828
2564.619873
0.000000
0.000000
1796.307495
1039.495605
0.000000
0.000000
3042.233398
2974.873047
0.000000
0.000000
3604.930664
3433.472656
0.000000
0.000000
2053.241699
1383.255371
0.000000
0.000000
3613.980469
3890.440430
0.000000
0.000000
3275.175293
3423.211670
0.000000
0.000000
1619.085571
0.000000
0.000000
0.000000
2799.365234
2596.948730
0.000000
0.000000
1928.751221
1936.846436
0.000000
0.000000
2779.030762
2077.536621
0.000000
0.000000
649.940796
0.000000
0.000000
0.000000
1500.790405
1830.621094
0.000000
0.000000
1489.532471
1994.605103
0.000000
0.000000
208.652115
0.000000
0.000000
0.000000
1679.688110
509.967621
0.000000
0.000000
2355.747314
2808.546143
0.000000
0.000000
2701.170166
2407.230957
0.000000
0.000000
1704.510742
712.714111
0.000000
0.000000
378.455902
0.000000
0.000000
0.000000
935.365784
1163.442505
0.000000
0.000000
0.000000
0.000000
0.000000
0.000000
2073.975830
2068.838135
0.000000
0.000000
1574.116333
1403.195923
0.000000
0.000000
0.000000
0.000000
0.000000
0.000000
0.000000
0.000000
0.000000
0.000000
0.000000
1741.450195
0.000000
0.000000
0.000000
929.477966
0.000000
0.000000
0.000000
0.000000
0.000000
0.000000
186.641891
0.000000
0.000000
0.000000
0.000000
0.000000
0.000000
232.142197
0.000000
0.000000
0.000000
0.000000
0.000000
0.000000
0.000000
0.000000
0.000000
0.000000
0.000000
0.000000
0.000000
0.000000
0.000000
0.000000
0.000000
0.000000
0.000000
0.000000
0.000000
0.000000
0.000000
0.000000
0.000000
0.000000
0.000000
1307.540649
0.000000
0.000000
0.000000
0.000000
0.000000
0.000000
0.000000
0.000000
0.000000
0.000000
0.000000
0.000000
0.000000
0.000000
0.000000
0.000000
0.000000
0.000000
0.000000
0.000000
0.000000
0.000000
0.000000
0.000000
0.000000
0.000000
0.000000
0.000000
0.000000
0.000000
0.000000
0.000000
0.000000
0.000000
0.000000
0.000000
0.000000
0.000000
0.000000
0.000000
0.000000
0.000000
0.000000
0.000000
0.000000
0.000000
0.000000
0.000000
0.000000
0.000000
0.000000
0.000000
0.000000
0.000000
0.000000
0.000000
0.000000
0.000000
0.000000
0.000000
0.000000
0.000000
0.000000
0.000000
0.000000
0.000000
0.000000
0.000000
0.000000
0.000000
0.000000
0.000000
0.000000
0.000000
0.000000
0.000000
0.000000
0.000000
</DataArray>
</PointData>
<Cells>
<DataArray type='Int32' Name='connectivity' format='ascii'>
0
1
2
3
4
5
6
7
8
9
10
11
12
13
14
15
16
17
18
19
20
21
22
23
24
25
26
27
28
29
30
31
32
33
34
35
36
37
38
39
40
41
42
43
44
45
46
47
48
49
50
51
52
53
54
55
56
57
58
59
60
61
62
63
64
65
66
67
68
69
70
71
72
73
74
75
76
77
78
79
80
81
82
83
84
85
86
87
88
89
90
91
92
93
94
95
96
97
98
99
100
101
102
103
104
105
106
107
108
109
110
111
112
113
114
115
116
117
118
119
120
121
122
123
124
125
126
127
128
129
130
131
132
133
134
135
136
137
138
139
140
141
142
143
144
145
146
147
148
149
150
151
152
153
154
155
156
157
158
159
160
161
162
163
164
165
166
167
168
169
170
171
172
173
174
175
176
177
178
179
180
181
182
183
184
185
186
187
188
189
190
191
192
193
194
195
196
197
198
199
200
201
202
203
204
205
206
207
208
209
210
211
212
213
214
215
216
217
218
219
220
221
222
223
224
225
226
227
228
229
230
231
232
233
234
235
236
237
238
239
240
241
242
243
244
245
246
247
248
249
250
251
252
253
254
255
256
257
258
259
260
261
262
263
264
265
266
267
268
269
270
271
272
273
274
275
276
277
278
279
280
281
282
283
284
285
286
287
288
289
290
291
292
293
294
295
296
297
298
299
300