<?xml version='1.0' encoding='UTF-8'?>
<VTKFile xmlns='VTK' byte_order='LittleEndian' version='0.1' type='UnstructuredGrid'>
<UnstructuredGrid>
<Piece NumberOfCells='584' NumberOfPoints='584'>
<Points>
<DataArray NumberOfComponents='3' type='Float32' Name='Position' format='ascii'>
-0.075000 -0.075000 0.000000
-0.075000 -0.050000 0.000000
-0.075000 -0.025000 0.000000
-0.075000 0.000000 0.000000
-0.075000 0.025000 0.000000
-0.075000 0.050000 0.000000
-0.075000 0.075000 0.000000
-0.075000 0.100000 0.000000
-0.075000 0.125000 0.000000
-0.075000 0.150000 0.000000
-0.075000 0.175000 0.000000
-0.075000 0.200000 0.000000
-0.075000 0.225000 0.000000
-0.075000 0.250000 0.000000
-0.075000 0.275000 0.000000
-0.075000 0.300000 0.000000
-0.075000 0.325000 0.000000
-0.075000 0.350000 0.000000
-0.075000 0.375000 0.000000
-0.075000 0.400000 0.000000
-0.075000 0.425000 0.000000
-0.075000 0.450000 0.000000
-0.075000 0.475000 0.000000
-0.075000 0.500000 0.000000
-0.075000 0.525000 0.000000
-0.075000 0.550000 0.000000
-0.075000 0.575000 0.000000
-0.075000 0.600000 0.000000
-0.050000 -0.075000 0.000000
-0.050000 -0.050000 0.000000
-0.050000 -0.025000 0.000000
-0.050000 0.000000 0.000000
-0.050000 0.025000 0.000000
-0.050000 0.050000 0.000000
-0.050000 0.075000 0.000000
-0.050000 0.100000 0.000000
-0.050000 0.125000 0.000000
-0.050000 0.150000 0.000000
-0.050000 0.175000 0.000000
-0.050000 0.200000 0.000000
-0.050000 0.225000 0.000000
-0.050000 0.250000 0.000000
-0.050000 0.275000 0.000000
-0.050000 0.300000 0.000000
-0.050000 0.325000 0.000000
-0.050000 0.350000 0.000000
-0.050000 0.375000 0.000000
-0.050000 0.400000 0.000000
-0.050000 0.425000 0.000000
-0.050000 0.450000 0.000000
-0.050000 0.475000 0.000000
-0.050000 0.500000 0.000000
-0.050000 0.525000 0.000000
-0.050000 0.550000 0.000000
-0.050000 0.575000 0.000000
-0.050000 0.600000 0.000000
-0.025000 -0.075000 0.000000
-0.025000 -0.050000 0.000000
-0.025000 -0.025000 0.000000
-0.025000 0.000000 0.000000
-0.025000 0.025000 0.000000
-0.025000 0.050000 0.000000
-0.025000 0.075000 0.000000
-0.025000 0.100000 0.000000
-0.025000 0.125000 0.000000
-0.025000 0.150000 0.000000
-0.025000 0.175000 0.000000
-0.025000 0.200000 0.000000
-0.025000 0.225000 0.000000
-0.025000 0.250000 0.000000
-0.025000 0.275000 0.000000
-0.025000 0.300000 0.000000
-0.025000 0.325000 0.000000
-0.025000 0.350000 0.000000
-0.025000 0.375000 0.000000
-0.025000 0.400000 0.000000
-0.025000 0.425000 0.000000
-0.025000 0.450000 0.000000
-0.025000 0.475000 0.000000
-0.025000 0.500000 0.000000
-0.025000 0.525000 0.000000
-0.025000 0.550000 0.000000
-0.025000 0.575000 0.000000
-0.025000 0.600000 0.000000
0.000000 -0.075000 0.000000
0.000000 -0.050000 0.000000
0.000000 -0.025000 0.000000
0.000000 0.000000 0.000000
0.000000 0.025000 0.000000
0.000000 0.050000 0.000000
0.000000 0.075000 0.000000
0.000000 0.100000 0.000000
0.000000 0.125000 0.000000
0.000000 0.150000 0.000000
0.000000 0.175000 0.000000
0.000000 0.200000 0.000000
0.000000 0.225000 0.000000
0.000000 0.250000 0.000000
0.000000 0.275000 0.000000
0.000000 0.300000 0.000000
0.000000 0.325000 0.000000
0.000000 0.350000 0.000000
0.000000 0.375000 0.000000
0.000000 0.400000 0.000000
0.000000 0.425000 0.000000
0.000000 0.450000 0.000000
0.000000 0.475000 0.000000
0.000000 0.500000 0.000000
0.000000 0.525000 0.000000
0.000000 0.550000 0.000000
0.000000 0.575000 0.000000
0.000000 0.600000 0.000000
0.025000 -0.075000 0.000000
0.025000 -0.050000 0.000000
0.025000 -0.025000 0.000000
0.025000 0.000000 0.000000
0.119373 0.049355 0.000000
0.178251 0.132179 0.000000
0.136756 0.023968 0.000000
0.172561 0.023174 0.000000
0.226993 0.045114 0.000000
0.101319 0.115220 0.000000
0.293715 0.026902 0.000000
0.193152 0.035759 0.000000
0.170681 0.058900 0.000000
0.042579 0.259440 0.000000
0.212962 0.023399 0.000000
0.048293 0.174765 0.000000
0.110763 0.023649 0.000000
0.075829 0.048548 0.000000
0.116375 0.140821 0.000000
0.054956 0.050097 0.000000
0.041232 0.194583 0.000000
0.085823 0.025373 0.000000
0.070230 0.200555 0.000000
0.100606 0.054342 0.000000
0.050000 -0.075000 0.000000
0.050000 -0.050000 0.000000
0.050000 -0.025000 0.000000
0.050000 0.000000 0.000000
0.130207 0.209820 0.000000
0.067612 0.140220 0.000000
0.057281 0.238887 0.000000
0.025206 0.024856 0.000000
0.027121 0.157032 0.000000
0.428780 0.051783 0.000000
0.159535 0.113732 0.000000
0.578498 0.049430 0.000000
0.129176 0.166248 0.000000
0.213949 0.168218 0.000000
0.086399 0.098661 0.000000
0.218055 0.104454 0.000000
0.021105 0.285750 0.000000
0.134015 0.182569 0.000000
0.066420 0.079906 0.000000
0.021702 0.072292 0.000000
0.179593 0.092700 0.000000
0.198497 0.088380 0.000000
0.071732 0.319543 0.000000
0.040564 0.072389 0.000000
0.075000 -0.075000 0.000000
0.075000 -0.050000 0.000000
0.075000 -0.025000 0.000000
0.075000 0.000000 0.000000
0.101231 0.159980 0.000000
0.157558 0.088646 0.000000
0.383173 0.039731 0.000000
0.318462 0.025672 0.000000
0.444141 0.107561 0.000000
0.659239 0.026108 0.000000
0.681700 0.041804 0.000000
0.043452 0.138361 0.000000
0.391171 0.110982 0.000000
0.652705 0.048209 0.000000
0.434089 0.021943 0.000000
0.092181 0.134153 0.000000
0.192658 0.057445 0.000000
0.200648 0.118324 0.000000
0.235158 0.078145 0.000000
0.054538 0.097599 0.000000
0.136513 0.104381 0.000000
0.032932 0.041747 0.000000
0.147750 0.064705 0.000000
0.128449 0.072734 0.000000
0.100000 -0.075000 0.000000
0.100000 -0.050000 0.000000
0.100000 -0.025000 0.000000
0.100000 0.000000 0.000000
0.472145 0.023353 0.000000
0.338876 0.141211 0.000000
0.486868 0.050612 0.000000
0.808585 0.024669 0.000000
0.215545 0.066508 0.000000
0.739503 0.027424 0.000000
0.635449 0.087937 0.000000
0.250905 0.046724 0.000000
0.695961 0.022030 0.000000
0.702842 0.047919 0.000000
0.452465 0.034779 0.000000
0.320288 0.119203 0.000000
0.540084 0.041700 0.000000
0.609229 0.022621 0.000000
0.099335 0.197090 0.000000
0.242025 0.023751 0.000000
0.532586 0.023884 0.000000
0.259956 0.071068 0.000000
0.345883 0.078810 0.000000
0.212144 0.135469 0.000000
0.125000 -0.075000 0.000000
0.125000 -0.050000 0.000000
0.125000 -0.025000 0.000000
0.125000 0.000000 0.000000
0.722455 0.079767 0.000000
0.700647 0.145849 0.000000
0.987826 0.070453 0.000000
0.828328 0.031976 0.000000
0.567629 0.067019 0.000000
0.581378 0.029241 0.000000
0.201653 0.159456 0.000000
0.497530 0.071129 0.000000
0.783310 0.083554 0.000000
0.759149 0.057205 0.000000
0.871408 0.045958 0.000000
0.530963 0.067218 0.000000
0.497318 0.027589 0.000000
0.483336 0.097756 0.000000
0.402779 0.022095 0.000000
0.466111 0.109444 0.000000
0.303980 0.135695 0.000000
0.117534 0.093486 0.000000
0.465686 0.074155 0.000000
0.023636 0.180382 0.000000
0.150000 -0.075000 0.000000
0.150000 -0.050000 0.000000
0.150000 -0.025000 0.000000
0.150000 0.000000 0.000000
0.235049 0.123446 0.000000
0.964874 0.029759 0.000000
0.761088 0.102662 0.000000
0.278976 0.053163 0.000000
0.881523 0.024095 0.000000
0.154246 0.037019 0.000000
0.920366 0.039538 0.000000
0.423997 0.078036 0.000000
0.944209 0.051995 0.000000
0.580773 0.104948 0.000000
0.889085 0.104238 0.000000
0.719216 0.030590 0.000000
0.834673 0.064852 0.000000
0.820359 0.071953 0.000000
0.781482 0.022617 0.000000
0.626092 0.051801 0.000000
0.637262 0.023653 0.000000
0.667137 0.065875 0.000000
0.681082 0.077197 0.000000
0.257075 0.115474 0.000000
0.175000 -0.075000 0.000000
0.175000 -0.050000 0.000000
0.175000 -0.025000 0.000000
0.175000 0.000000 0.000000
0.065347 0.163446 0.000000
0.636910 0.103725 0.000000
0.895081 0.068406 0.000000
0.834413 0.090627 0.000000
0.984999 0.025186 0.000000
0.135316 0.270432 0.000000
0.853255 0.022652 0.000000
0.327517 0.056106 0.000000
0.363119 0.022237 0.000000
0.907258 0.026486 0.000000
0.549983 0.075998 0.000000
0.757664 0.081810 0.000000
0.411489 0.101951 0.000000
0.939370 0.020533 0.000000
0.982113 0.057911 0.000000
0.407677 0.046549 0.000000
1.004307 0.032005 0.000000
0.488100 0.115419 0.000000
0.181004 0.156567 0.000000
0.421461 0.135651 0.000000
0.200000 -0.075000 0.000000
0.200000 -0.050000 0.000000
0.200000 -0.025000 0.000000
0.200000 0.000000 0.000000
0.363802 0.086223 0.000000
0.090860 0.078082 0.000000
0.293942 0.091995 0.000000
0.803353 0.046951 0.000000
0.352462 0.052336 0.000000
0.292267 0.124408 0.000000
0.605881 0.045874 0.000000
0.949310 0.075025 0.000000
0.407084 0.127069 0.000000
0.017415 0.218532 0.000000
0.796368 0.078281 0.000000
0.705162 0.083366 0.000000
0.060736 0.021634 0.000000
0.457980 0.056947 0.000000
0.599776 0.076133 0.000000
0.071220 0.253114 0.000000
0.725125 0.064601 0.000000
0.369243 0.134196 0.000000
0.884352 0.061591 0.000000
0.723206 0.118508 0.000000
0.225000 -0.075000 0.000000
0.225000 -0.050000 0.000000
0.225000 -0.025000 0.000000
0.225000 0.000000 0.000000
0.278929 0.078821 0.000000
0.850435 0.047686 0.000000
0.579557 0.092136 0.000000
0.163352 0.164036 0.000000
0.041166 0.240800 0.000000
0.089519 0.252780 0.000000
0.442548 0.089707 0.000000
0.931756 0.062323 0.000000
0.628914 0.073855 0.000000
0.096142 0.183907 0.000000
0.681286 0.096131 0.000000
0.076945 0.403116 0.000000
0.341269 0.027751 0.000000
0.401147 0.067920 0.000000
0.061241 0.119143 0.000000
0.243076 0.184665 0.000000
0.509925 0.042891 0.000000
0.025483 0.104512 0.000000
0.246732 0.095797 0.000000
0.299586 0.048085 0.000000
0.250000 -0.075000 0.000000
0.250000 -0.050000 0.000000
0.250000 -0.025000 0.000000
0.250000 0.000000 0.000000
0.758222 0.032733 0.000000
0.353084 0.124291 0.000000
0.271554 0.129806 0.000000
0.312847 0.097180 0.000000
0.268662 0.022270 0.000000
0.387257 0.091669 0.000000
0.155377 0.141285 0.000000
0.263594 0.168384 0.000000
0.262352 0.152716 0.000000
0.511874 0.088240 0.000000
0.241912 0.151447 0.000000
0.038692 0.297714 0.000000
0.135104 0.131805 0.000000
0.558897 0.024080 0.000000
0.372619 0.061171 0.000000
0.317855 0.073010 0.000000
0.343479 0.108783 0.000000
0.779833 0.051926 0.000000
0.024622 0.124185 0.000000
0.526946 0.089338 0.000000
0.275000 -0.075000 0.000000
0.275000 -0.050000 0.000000
0.275000 -0.025000 0.000000
0.275000 0.000000 0.000000
0.300000 -0.075000 0.000000
0.300000 -0.050000 0.000000
0.300000 -0.025000 0.000000
0.300000 0.000000 0.000000
0.325000 -0.075000 0.000000
0.325000 -0.050000 0.000000
0.325000 -0.025000 0.000000
0.325000 0.000000 0.000000
0.350000 -0.075000 0.000000
0.350000 -0.050000 0.000000
0.350000 -0.025000 0.000000
0.350000 0.000000 0.000000
0.375000 -0.075000 0.000000
0.375000 -0.050000 0.000000
0.375000 -0.025000 0.000000
0.375000 0.000000 0.000000
0.400000 -0.075000 0.000000
0.400000 -0.050000 0.000000
0.400000 -0.025000 0.000000
0.400000 0.000000 0.000000
0.425000 -0.075000 0.000000
0.425000 -0.050000 0.000000
0.425000 -0.025000 0.000000
0.425000 0.000000 0.000000
0.450000 -0.075000 0.000000
0.450000 -0.050000 0.000000
0.450000 -0.025000 0.000000
0.450000 0.000000 0.000000
0.475000 -0.075000 0.000000
0.475000 -0.050000 0.000000
0.475000 -0.025000 0.000000
0.475000 0.000000 0.000000
0.500000 -0.075000 0.000000
0.500000 -0.050000 0.000000
0.500000 -0.025000 0.000000
0.500000 0.000000 0.000000
0.525000 -0.075000 0.000000
0.525000 -0.050000 0.000000
0.525000 -0.025000 0.000000
0.525000 0.000000 0.000000
0.550000 -0.075000 0.000000
0.550000 -0.050000 0.000000
0.550000 -0.025000 0.000000
0.550000 0.000000 0.000000
0.575000 -0.075000 0.000000
0.575000 -0.050000 0.000000
0.575000 -0.025000 0.000000
0.575000 0.000000 0.000000
0.600000 -0.075000 0.000000
0.600000 -0.050000 0.000000
0.600000 -0.025000 0.000000
0.600000 0.000000 0.000000
0.625000 -0.075000 0.000000
0.625000 -0.050000 0.000000
0.625000 -0.025000 0.000000
0.625000 0.000000 0.000000
0.650000 -0.075000 0.000000
0.650000 -0.050000 0.000000
0.650000 -0.025000 0.000000
0.650000 0.000000 0.000000
0.675000 -0.075000 0.000000
0.675000 -0.050000 0.000000
0.675000 -0.025000 0.000000
0.675000 0.000000 0.000000
0.700000 -0.075000 0.000000
0.700000 -0.050000 0.000000
0.700000 -0.025000 0.000000
0.700000 0.000000 0.000000
0.725000 -0.075000 0.000000
0.725000 -0.050000 0.000000
0.725000 -0.025000 0.000000
0.725000 0.000000 0.000000
0.750000 -0.075000 0.000000
0.750000 -0.050000 0.000000
0.750000 -0.025000 0.000000
0.750000 0.000000 0.000000
0.775000 -0.075000 0.000000
0.775000 -0.050000 0.000000
0.775000 -0.025000 0.000000
0.775000 0.000000 0.000000
0.800000 -0.075000 0.000000
0.800000 -0.050000 0.000000
0.800000 -0.025000 0.000000
0.800000 0.000000 0.000000
0.825000 -0.075000 0.000000
0.825000 -0.050000 0.000000
0.825000 -0.025000 0.000000
0.825000 0.000000 0.000000
0.850000 -0.075000 0.000000
0.850000 -0.050000 0.000000
0.850000 -0.025000 0.000000
0.850000 0.000000 0.000000
0.875000 -0.075000 0.000000
0.875000 -0.050000 0.000000
0.875000 -0.025000 0.000000
0.875000 0.000000 0.000000
0.900000 -0.075000 0.000000
0.900000 -0.050000 0.000000
0.900000 -0.025000 0.000000
0.900000 0.000000 0.000000
0.925000 -0.075000 0.000000
0.925000 -0.050000 0.000000
0.925000 -0.025000 0.000000
0.925000 0.000000 0.000000
0.950000 -0.075000 0.000000
0.950000 -0.050000 0.000000
0.950000 -0.025000 0.000000
0.950000 0.000000 0.000000
0.975000 -0.075000 0.000000
0.975000 -0.050000 0.000000
0.975000 -0.025000 0.000000
0.975000 0.000000 0.000000
1.000000 -0.075000 0.000000
1.000000 -0.050000 0.000000
1.000000 -0.025000 0.000000
1.000000 0.000000 0.000000
1.025000 -0.075000 0.000000
1.025000 -0.050000 0.000000
1.025000 -0.025000 0.000000
1.025000 0.000000 0.000000
1.025000 0.025000 0.000000
1.025000 0.050000 0.000000
1.025000 0.075000 0.000000
1.025000 0.100000 0.000000
1.025000 0.125000 0.000000
1.025000 0.150000 0.000000
1.025000 0.175000 0.000000
1.025000 0.200000 0.000000
1.025000 0.225000 0.000000
1.025000 0.250000 0.000000
1.025000 0.275000 0.000000
1.025000 0.300000 0.000000
1.025000 0.325000 0.000000
1.025000 0.350000 0.000000
1.025000 0.375000 0.000000
1.025000 0.400000 0.000000
1.025000 0.425000 0.000000
1.025000 0.450000 0.000000
1.025000 0.475000 0.000000
1.025000 0.500000 0.000000
1.025000 0.525000 0.000000
1.025000 0.550000 0.000000
1.025000 0.575000 0.000000
1.025000 0.600000 0.000000
1.050000 -0.075000 0.000000
1.050000 -0.050000 0.000000
1.050000 -0.025000 0.000000
1.050000 0.000000 0.000000
1.050000 0.025000 0.000000
1.050000 0.050000 0.000000
1.050000 0.075000 0.000000
1.050000 0.100000 0.000000
1.050000 0.125000 0.000000
1.050000 0.150000 0.000000
1.050000 0.175000 0.000000
1.050000 0.200000 0.000000
1.050000 0.225000 0.000000
1.050000 0.250000 0.000000
1.050000 0.275000 0.000000
1.050000 0.300000 0.000000
1.050000 0.325000 0.000000
1.050000 0.350000 0.000000
1.050000 0.375000 0.000000
1.050000 0.400000 0.000000
1.050000 0.425000 0.000000
1.050000 0.450000 0.000000
1.050000 0.475000 0.000000
1.050000 0.500000 0.000000
1.050000 0.525000 0.000000
1.050000 0.550000 0.000000
1.050000 0.575000 0.000000
1.050000 0.600000 0.000000
1.075000 -0.075000 0.000000
1.075000 -0.050000 0.000000
1.075000 -0.025000 0.000000
1.075000 0.000000 0.000000
1.075000 0.025000 0.000000
1.075000 0.050000 0.000000
1.075000 0.075000 0.000000
1.075000 0.100000 0.000000
1.075000 0.125000 0.000000
1.075000 0.150000 0.000000
1.075000 0.175000 0.000000
1.075000 0.200000 0.000000
1.075000 0.225000 0.000000
1.075000 0.250000 0.000000
1.075000 0.275000 0.000000
1.075000 0.300000 0.000000
1.075000 0.325000 0.000000
1.075000 0.350000 0.000000
1.075000 0.375000 0.000000
1.075000 0.400000 0.000000
1.075000 0.425000 0.000000
1.075000 0.450000 0.000000
1.075000 0.475000 0.000000
1.075000 0.500000 0.000000
1.075000 0.525000 0.000000
1.075000 0.550000 0.000000
1.075000 0.575000 0.000000
1.075000 0.600000 0.000000
1.100000 -0.075000 0.000000
1.100000 -0.050000 0.000000
1.100000 -0.025000 0.000000
1.100000 0.000000 0.000000
1.100000 0.025000 0.000000
1.100000 0.050000 0.000000
1.100000 0.075000 0.000000
1.100000 0.100000 0.000000
1.100000 0.125000 0.000000
1.100000 0.150000 0.000000
1.100000 0.175000 0.000000
1.100000 0.200000 0.000000
1.100000 0.225000 0.000000
1.100000 0.250000 0.000000
1.100000 0.275000 0.000000
1.100000 0.300000 0.000000
1.100000 0.325000 0.000000
1.100000 0.350000 0.000000
1.100000 0.375000 0.000000
1.100000 0.400000 0.000000
1.100000 0.425000 0.000000
1.100000 0.450000 0.000000
1.100000 0.475000 0.000000
1.100000 0.500000 0.000000
1.100000 0.525000 0.000000
1.100000 0.550000 0.000000
1.100000 0.575000 0.000000
1.100000 0.600000 0.000000
</DataArray>
</Points>
<PointData>
<DataArray NumberOfComponents='1' type='Int32' Name='ParticleType' format='ascii'>
3
3
3
3
3
3
3
3
3
3
3
3
3
3
3
3
3
3
3
3
3
3
3
3
3
3
2
2
3
3
3
3
3
3
3
3
3
3
3
3
3
3
3
3
3
3
3
3
3
3
3
3
3
3
2
2
3
3
2
2
2
2
2
2
2
2
2
2
2
2
2
2
2
2
2
2
2
2
2
2
2
2
2
2
3
3
2
2
2
2
2
2
2
2
2
2
2
2
2
2
2
2
2
2
2
2
2
2
2
2
2
2
3
3
2
2
0
0
0
0
0
0
0
0
0
0
0
0
0
0
0
0
0
0
0
0
3
3
2
2
0
0
0
0
0
0
0
0
0
0
0
0
0
0
0
0
0
0
0
0
3
3
2
2
0
0
0
0
0
0
0
0
0
0
0
0
0
0
0
0
0
0
0
0
3
3
2
2
0
0
0
0
0
0
0
0
0
0
0
0
0
0
0
0
0
0
0
0
3
3
2
2
0
0
0
0
0
0
0
0
0
0
0
0
0
0
0
0
0
0
0
0
3
3
2
2
0
0
0
0
0
0
0
0
0
0
0
0
0
0
0
0
0
0
0
0
3
3
2
2
0
0
0
0
0
0
0
0
0
0
0
0
0
0
0
0
0
0
0
0
3
3
2
2
0
0
0
0
0
0
0
0
0
0
0
0
0
0
0
0
0
0
0
0
3
3
2
2
0
0
0
0
0
0
0
0
0
0
0
0
0
0
0
0
0
0
0
0
3
3
2
2
0
0
0
0
0
0
0
0
0
0
0
0
0
0
0
0
0
0
0
0
3
3
2
2
3
3
2
2
3
3
2
2
3
3
2
2
3
3
2
2
3
3
2
2
3
3
2
2
3
3
2
2
3
3
2
2
3
3
2
2
3
3
2
2
3
3
2
2
3
3
2
2
3
3
2
2
3
3
2
2
3
3
2
2
3
3
2
2
3
3
2
2
3
3
2
2
3
3
2
2
3
3
2
2
3
3
2
2
3
3
2
2
3
3
2
2
3
3
2
2
3
3
2
2
3
3
2
2
3
3
2
2
3
3
2
2
3
3
2
2
3
3
2
2
2
2
2
2
2
2
2
2
2
2
2
2
2
2
2
2
2
2
2
2
2
2
2
2
3
3
2
2
2
2
2
2
2
2
2
2
2
2
2
2
2
2
2
2
2
2
2
2
2
2
2
2
3
3
3
3
3
3
3
3
3
3
3
3
3
3
3
3
3
3
3
3
3
3
3
3
3
3
2
2
3
3
3
3
3
3
3
3
3
3
3
3
3
3
3
3
3
3
3
3
3
3
3
3
3
3
2
2
</DataArray>
<DataArray NumberOfComponents='1' type='Float32' Name='Velocity' format='ascii'>
0.000000
0.000000
0.000000
0.000000
0.000000
0.000000
0.000000
0.000000
0.000000
0.000000
0.000000
0.000000
0.000000
0.000000
0.000000
0.000000
0.000000
0.000000
0.000000
0.000000
0.000000
0.000000
0.000000
0.000000
0.000000
0.000000
0.000000
0.000000
0.000000
0.000000
0.000000
0.000000
0.000000
0.000000
0.000000
0.000000
0.000000
0.000000
0.000000
0.000000
0.000000
0.000000
0.000000
0.000000
0.000000
0.000000
0.000000
0.000000
0.000000
0.000000
0.000000
0.000000
0.000000
0.000000
0.000000
0.000000
0.000000
0.000000
0.000000
0.000000
0.000000
0.000000
0.000000
0.000000
0.000000
0.000000
0.000000
0.000000
0.000000
0.000000
0.000000
0.000000
0.000000
0.000000
0.000000
0.000000
0.000000
0.000000
0.000000
0.000000
0.000000
0.000000
0.000000
0.000000
0.000000
0.000000
0.000000
0.000000
0.000000
0.000000
0.000000
0.000000
0.000000
0.000000
0.000000
0.000000
0.000000
0.000000
0.000000
0.000000
0.000000
0.000000
0.000000
0.000000
0.000000
0.000000
0.000000
0.000000
0.000000
0.000000
0.000000
0.000000
0.000000
0.000000
0.000000
0.000000
0.377160
0.527344
0.268843
0.269775
0.481864
0.427689
0.234326
0.367139
0.356952
0.366613
0.170126
0.253638
0.252064
0.425211
0.570606
0.244451
0.263683
0.622147
0.368308
0.263630
0.000000
0.000000
0.000000
0.000000
0.261031
0.172166
0.683889
0.089842
0.357429
0.110063
0.352946
0.479367
0.485802
0.589769
0.425172
0.829943
0.543988
0.158822
0.241213
0.159519
0.506333
0.288189
0.216470
0.175297
0.000000
0.000000
0.000000
0.000000
0.414603
0.139675
0.278732
0.102902
0.881427
0.226827
0.466194
0.416275
0.928473
0.721225
0.410657
0.439762
0.115863
0.302414
0.306325
0.297022
0.166191
0.218813
0.247043
0.137504
0.000000
0.000000
0.000000
0.000000
0.570056
1.174584
0.195047
0.472502
0.216788
0.435702
0.539838
0.256855
0.380730
0.370511
0.143343
0.551821
0.196303
0.201162
0.472683
0.459957
0.131174
0.351863
0.658711
0.949768
0.000000
0.000000
0.000000
0.000000
0.396922
1.026796
0.295231
0.102986
0.777544
0.180940
0.921667
0.820348
0.397744
0.363098
0.376320
0.700518
0.232567
0.651989
0.325548
1.176896
0.899504
0.335235
0.282726
0.620145
0.000000
0.000000
0.000000
0.000000
0.989231
0.122011
0.554442
0.351777
0.068265
0.243890
0.140108
0.480434
0.297599
1.473946
0.441448
0.467692
0.279585
0.607756
0.370472
0.158479
0.238864
0.475418
0.403009
0.743304
0.000000
0.000000
0.000000
0.000000
0.550805
0.627215
0.431144
0.636776
0.112169
0.323526
0.087142
0.258283
0.222401
0.214210
0.770561
0.448772
1.008321
0.080011
0.356730
0.342054
0.238365
0.308872
0.577166
0.584043
0.000000
0.000000
0.000000
0.000000
0.561848
0.291580
0.578853
0.239569
0.231091
0.754678
0.219519
0.140908
0.522985
0.357416
0.327837
0.369538
0.498519
0.245573
0.922022
0.500441
0.219732
0.323937
0.288040
0.176113
0.000000
0.000000
0.000000
0.000000
0.365623
0.536635
0.843871
1.169343
0.490804
0.794873
0.589970
0.167903
0.359372
0.312122
0.491677
0.637448
0.336391
0.381478
0.220326
0.749156
0.510970
0.242314
0.430812
0.322013
0.000000
0.000000
0.000000
0.000000
0.401020
0.869743
0.376139
0.495281
0.469397
0.460411
0.138318
0.669395
0.944639
0.553020
0.336637
0.220624
0.184185
0.614608
0.532973
0.458858
0.797491
0.240626
0.126750
0.898149
0.000000
0.000000
0.000000
0.000000
0.000000
0.000000
0.000000
0.000000
0.000000
0.000000
0.000000
0.000000
0.000000
0.000000
0.000000
0.000000
0.000000
0.000000
0.000000
0.000000
0.000000
0.000000
0.000000
0.000000
0.000000
0.000000
0.000000
0.000000
0.000000
0.000000
0.000000
0.000000
0.000000
0.000000
0.000000
0.000000
0.000000
0.000000
0.000000
0.000000
0.000000
0.000000
0.000000
0.000000
0.000000
0.000000
0.000000
0.000000
0.000000
0.000000
0.000000
0.000000
0.000000
0.000000
0.000000
0.000000
0.000000
0.000000
0.000000
0.000000
0.000000
0.000000
0.000000
0.000000
0.000000
0.000000
0.000000
0.000000
0.000000
0.000000
0.000000
0.000000
0.000000
0.000000
0.000000
0.000000
0.000000
0.000000
0.000000
0.000000
0.000000
0.000000
0.000000
0.000000
0.000000
0.000000
0.000000
0.000000
0.000000
0.000000
0.000000
0.000000
0.000000
0.000000
0.000000
0.000000
0.000000
0.000000
0.000000
0.000000
0.000000
0.000000
0.000000
0.000000
0.000000
0.000000
0.000000
0.000000
0.000000
0.000000
0.000000
0.000000
0.000000
0.000000
0.000000
0.000000
0.000000
0.000000
0.000000
0.000000
0.000000
0.000000
0.000000
0.000000
0.000000
0.000000
0.000000
0.000000
0.000000
0.000000
0.000000
0.000000
0.000000
0.000000
0.000000
0.000000
0.000000
0.000000
0.000000
0.000000
0.000000
0.000000
0.000000
0.000000
0.000000
0.000000
0.000000
0.000000
0.000000
0.000000
0.000000
0.000000
0.000000
0.000000
0.000000
0.000000
0.000000
0.000000
0.000000
0.000000
0.000000
0.000000
0.000000
0.000000
0.000000
0.000000
0.000000
0.000000
0.000000
0.000000
0.000000
0.000000
0.000000
0.000000
0.000000
0.000000
0.000000
0.000000
0.000000
0.000000
0.000000
0.000000
0.000000
0.000000
0.000000
0.000000
0.000000
0.000000
0.000000
0.000000
0.000000
0.000000
0.000000
0.000000
0.000000
0.000000
0.000000
0.000000
0.000000
0.000000
0.000000
0.000000
0.000000
0.000000
0.000000
0.000000
0.000000
0.000000
0.000000
0.000000
0.000000
0.000000
0.000000
0.000000
0.000000
0.000000
0.000000
0.000000
0.000000
0.000000
0.000000
0.000000
0.000000
0.000000
0.000000
0.000000
0.000000
0.000000
0.000000
0.000000
0.000000
0.000000
</DataArray>
<DataArray NumberOfComponents='1' type='Float32' Name='pressure' format='ascii'>
0.000000
0.000000
0.000000
0.000000
0.000000
0.000000
0.000000
0.000000
0.000000
0.000000
0.000000
0.000000
0.000000
0.000000
0.000000
0.000000
0.000000
0.000000
0.000000
0.000000
0.000000
0.000000
0.000000
0.000000
0.000000
0.000000
0.000000
0.000000
0.000000
0.000000
0.000000
0.000000
0.000000
0.000000
0.000000
0.000000
0.000000
0.000000
0.000000
0.000000
0.000000
0.000000
0.000000
0.000000
0.000000
0.000000
0.000000
0.000000
0.000000
0.000000
0.000000
0.000000
0.000000
0.000000
0.000000
0.000000
0.000000
0.000000
330.954712
162.186935
0.000000
0.000000
1586.270630
287.539551
521.754089
0.000000
1544.413696
2959.667969
4218.225586
321.520508
1472.371338
717.813232
0.000000
0.000000
0.000000
0.000000
0.000000
0.000000
0.000000
0.000000
0.000000
0.000000
0.000000
0.000000
0.000000
0.000000
571.603333
305.263550
0.000000
0.000000
966.457458
254.456146
598.144348
0.000000
1196.876221
586.160950
553.225586
0.000000
0.000000
0.000000
0.000000
0.000000
0.000000
0.000000
0.000000
0.000000
0.000000
0.000000
0.000000
0.000000
0.000000
0.000000
0.000000
0.000000
1157.235718
507.350891
1141.273193
1537.581177
665.765198
1639.761841
1003.376465
1121.411133
2097.419678
2458.733398
590.632996
0.000000
2056.866455
8.813685
1437.164917
1218.040161
0.000000
1855.814331
0.000000
2007.976074
0.000000
1736.550171
0.000000
0.000000
2626.198486
1105.818848
0.000000
333.516968
0.000000
843.091492
205.088715
0.000000
0.000000
1915.397339
0.000000
0.000000
1069.049072
2275.228027
0.000000
0.000000
1717.362671
1130.433350
1311.359009
621.783875
0.000000
583.380981
0.000000
0.000000
3308.542725
3548.612549
0.000000
912.167603
0.000000
1442.302124
0.000000
1879.576538
1067.124146
1679.641235
0.000000
201.923218
1729.836548
0.000000
3233.449463
1298.900513
2841.579590
0.000000
291.018433
1526.705566
2028.291748
1257.494629
0.000000
0.000000
2882.844238
3302.650391
1061.032959
0.000000
0.000000
2245.462158
1928.994141
686.967224
0.000000
1611.496948
1099.924072
330.615753
2676.067139
1378.291748
767.669250
1046.401367
0.000000
2296.241455
1226.140503
3418.867920
1280.558105
0.000000
0.000000
0.000000
2930.313232
2672.736572
0.000000
0.000000
0.000000
461.722961
2007.809570
2345.734131
653.123352
0.000000
0.000000
0.000000
499.010803
1939.927856
1040.822510
1521.083862
0.000000
0.000000
0.000000
249.660690
422.488129
2074.806396
0.000000
0.000000
1966.788574
1659.160400
0.000000
0.000000
0.000000
1752.580078
0.000000
1625.436890
932.281006
0.000000
333.737305
0.000000
0.000000
857.985413
0.000000
1465.424927
1056.179077
1761.892212
2993.482178
685.724609
922.449585
1299.945679
0.000000
0.000000
2639.436035
2060.015625
0.000000
0.000000
0.000000
0.000000
1111.293457
0.000000
654.143311
2109.709229
1510.821533
0.000000
0.000000
0.000000
436.615112
1098.561646
0.000000
2453.840332
442.883392
0.000000
0.000000
0.000000
0.000000
0.000000
2225.234863
202.475601
585.340820
740.021667
1887.886108
157.337402
2052.620850
1363.451294
450.620850
0.000000
0.000000
0.000000
1145.315186
0.000000
724.023071
385.205841
0.000000
0.000000
0.000000
0.000000
0.000000
0.000000
0.000000
0.000000
3199.649902
2647.544922
2452.063721
0.000000
0.000000
0.000000
0.000000
0.000000
2256.400146
0.000000
1100.583008
0.000000
0.000000
0.000000
2036.550659
1483.858276
378.221649
0.000000
0.000000
0.000000
220.905930
2101.202637
0.000000
0.000000
4158.024414
4969.138184
257.439606
2238.928955
0.000000
2788.697998
2746.719971
1239.631836
750.838928
0.000000
1570.672729
2081.086670
0.000000
0.000000
1184.783081
1013.005188
1991.525146
1373.991333
2196.292969
1241.779785
440.330841
0.000000
0.000000
0.000000
3975.691895
3931.868164
0.000000
0.000000
1770.289551
1824.090332
0.000000
0.000000
1641.784424
1424.496704
0.000000
0.000000
2353.863770
2129.324463
0.000000
0.000000
2670.657227
1199.553833
0.000000
0.000000
3407.635986
2821.613037
0.000000
0.000000
3180.089355
2163.027588
0.000000
0.000000
1991.539062
1221.795044
0.000000
0.000000
1712.604126
1079.257935
0.000000
0.000000
33.339268
0.000000
0.000000
0.000000
939.438354
0.000000
0.000000
0.000000
1250.104492
2690.955322
0.000000
0.000000
632.027466
0.000000
0.000000
0.000000
1894.307495
1026.728760
0.000000
0.000000
2238.903320
2065.497559
0.000000
0.000000
1456.160645
1175.207886
0.000000
0.000000
488.499420
0.000000
0.000000
0.000000
1388.291504
1620.987915
0.000000
0.000000
0.000000
0.000000
0.000000
0.000000
0.000000
0.000000
0.000000
0.000000
815.755615
87.117699
0.000000
0.000000
651.824158
832.556274
0.000000
0.000000
0.000000
0.000000
0.000000
0.000000
1236.284546
1313.297485
0.000000
0.000000
731.275146
920.813538
0.000000
0.000000
51.517574
0.000000
0.000000
0.000000
1762.498535
1393.537964
0.000000
0.000000
2197.330566
1589.257812
0.000000
0.000000
350.497742
386.096649
0.000000
0.000000
0.000000
0.000000
0.000000
0.000000
542.874939
774.384888
1688.485962
0.000000
0.000000
0.000000
0.000000
0.000000
0.000000
0.000000
0.000000
0.000000
0.000000
0.000000
0.000000
0.000000
0.000000
0.000000
0.000000
0.000000
0.000000
0.000000
0.000000
0.000000
0.000000
0.000000
0.000000
0.000000
792.740906
1005.901062
2308.828369
772.847656
0.000000
0.000000
0.000000
0.000000
0.000000
0.000000
0.000000
0.000000
0.000000
0.000000
0.000000
0.000000
0.000000
0.000000
0.000000
0.000000
0.000000
0.000000
0.000000
0.000000
0.000000
0.000000
0.000000
0.000000
0.000000
0.000000
0.000000
0.000000
0.000000
0.000000
0.000000
0.000000
0.000000
0.000000
0.000000
0.000000
0.000000
0.000000
0.000000
0.000000
0.000000
0.000000
0.000000
0.000000
0.000000
0.000000
0.000000
0.000000
0.000000
0.000000
0.000000
0.000000
0.000000
0.000000
0.000000
0.000000
0.000000
0.000000
0.000000
0.000000
0.000000
0.000000
0.000000
0.000000
0.000000
0.000000
0.000000
0.000000
0.000000
0.000000
0.000000
0.000000
0.000000
0.000000
0.000000
0.000000
0.000000
0.000000
</DataArray>
</PointData>
<Cells>
<DataArray type='Int32' Name='connectivity' format='ascii'>
0
1
2
3
4
5
6
7
8
9
10
11
12
13
14
15
16
17
18
19
20
21
22
23
24
25
26
27
28
29
30
31
32
33
34
35
36
37
38
39
40
41
42
43
44
45
46
47
48
49
50
51
52
53
54
55
56
57
58
59
60
61
62
63
64
65
66
67
68
69
70
71
72
73
74
75
76
77
78
79
80
81
82
83
84
85
86
87
88
89
90
91
92
93
94
95
96
97
98
99
100
101
102
103
104
105
106
107
108
109
110
111
112
113
114
115
116
117
118
119
120
121
122
123
124
125
126
127
128
129
130
131
132
133
134
135
136
137
138
139
140
141
142
143
144
145
146
147
148
149
150
151
152
153
154
155
156
157
158
159
160
161
162
163
164
165
166
167
168
169
170
171
172
173
174
175
176
177
178
179
180
181
182
183
184
185
186
187
188
189
190
191
192
193
194
195
196
197
198
199
200
201
202
203
204
205
206
207
208
209
210
211
212
213
214
215
216
217
218
219
220
221
222
223
224
225
226
227
228
229
230
231
232
233
234
235
236
237
238
239
240
241
242
243
244
245
246
247
248
249
250
251
252
253
254
255
256
257
258
259
260
261
262
263
264
265
266
267
268
269
270
271
272
273
274
275
276
277
278
279
280
281
282
283
284
285
286
287
288
289
290
291
292
293
294
295