<?xml version='1.0' encoding='UTF-8'?>
<VTKFile xmlns='VTK' byte_order='LittleEndian' version='0.1' type='UnstructuredGrid'>
<UnstructuredGrid>
<Piece NumberOfCells='584' NumberOfPoints='584'>
<Points>
<DataArray NumberOfComponents='3' type='Float32' Name='Position' format='ascii'>
-0.075000 -0.075000 0.000000
-0.075000 -0.050000 0.000000
-0.075000 -0.025000 0.000000
-0.075000 0.000000 0.000000
-0.075000 0.025000 0.000000
-0.075000 0.050000 0.000000
-0.075000 0.075000 0.000000
-0.075000 0.100000 0.000000
-0.075000 0.125000 0.000000
-0.075000 0.150000 0.000000
-0.075000 0.175000 0.000000
-0.075000 0.200000 0.000000
-0.075000 0.225000 0.000000
-0.075000 0.250000 0.000000
-0.075000 0.275000 0.000000
-0.075000 0.300000 0.000000
-0.075000 0.325000 0.000000
-0.075000 0.350000 0.000000
-0.075000 0.375000 0.000000
-0.075000 0.400000 0.000000
-0.075000 0.425000 0.000000
-0.075000 0.450000 0.000000
-0.075000 0.475000 0.000000
-0.075000 0.500000 0.000000
-0.075000 0.525000 0.000000
-0.075000 0.550000 0.000000
-0.075000 0.575000 0.000000
-0.075000 0.600000 0.000000
-0.050000 -0.075000 0.000000
-0.050000 -0.050000 0.000000
-0.050000 -0.025000 0.000000
-0.050000 0.000000 0.000000
-0.050000 0.025000 0.000000
-0.050000 0.050000 0.000000
-0.050000 0.075000 0.000000
-0.050000 0.100000 0.000000
-0.050000 0.125000 0.000000
-0.050000 0.150000 0.000000
-0.050000 0.175000 0.000000
-0.050000 0.200000 0.000000
-0.050000 0.225000 0.000000
-0.050000 0.250000 0.000000
-0.050000 0.275000 0.000000
-0.050000 0.300000 0.000000
-0.050000 0.325000 0.000000
-0.050000 0.350000 0.000000
-0.050000 0.375000 0.000000
-0.050000 0.400000 0.000000
-0.050000 0.425000 0.000000
-0.050000 0.450000 0.000000
-0.050000 0.475000 0.000000
-0.050000 0.500000 0.000000
-0.050000 0.525000 0.000000
-0.050000 0.550000 0.000000
-0.050000 0.575000 0.000000
-0.050000 0.600000 0.000000
-0.025000 -0.075000 0.000000
-0.025000 -0.050000 0.000000
-0.025000 -0.025000 0.000000
-0.025000 0.000000 0.000000
-0.025000 0.025000 0.000000
-0.025000 0.050000 0.000000
-0.025000 0.075000 0.000000
-0.025000 0.100000 0.000000
-0.025000 0.125000 0.000000
-0.025000 0.150000 0.000000
-0.025000 0.175000 0.000000
-0.025000 0.200000 0.000000
-0.025000 0.225000 0.000000
-0.025000 0.250000 0.000000
-0.025000 0.275000 0.000000
-0.025000 0.300000 0.000000
-0.025000 0.325000 0.000000
-0.025000 0.350000 0.000000
-0.025000 0.375000 0.000000
-0.025000 0.400000 0.000000
-0.025000 0.425000 0.000000
-0.025000 0.450000 0.000000
-0.025000 0.475000 0.000000
-0.025000 0.500000 0.000000
-0.025000 0.525000 0.000000
-0.025000 0.550000 0.000000
-0.025000 0.575000 0.000000
-0.025000 0.600000 0.000000
0.000000 -0.075000 0.000000
0.000000 -0.050000 0.000000
0.000000 -0.025000 0.000000
0.000000 0.000000 0.000000
0.000000 0.025000 0.000000
0.000000 0.050000 0.000000
0.000000 0.075000 0.000000
0.000000 0.100000 0.000000
0.000000 0.125000 0.000000
0.000000 0.150000 0.000000
0.000000 0.175000 0.000000
0.000000 0.200000 0.000000
0.000000 0.225000 0.000000
0.000000 0.250000 0.000000
0.000000 0.275000 0.000000
0.000000 0.300000 0.000000
0.000000 0.325000 0.000000
0.000000 0.350000 0.000000
0.000000 0.375000 0.000000
0.000000 0.400000 0.000000
0.000000 0.425000 0.000000
0.000000 0.450000 0.000000
0.000000 0.475000 0.000000
0.000000 0.500000 0.000000
0.000000 0.525000 0.000000
0.000000 0.550000 0.000000
0.000000 0.575000 0.000000
0.000000 0.600000 0.000000
0.025000 -0.075000 0.000000
0.025000 -0.050000 0.000000
0.025000 -0.025000 0.000000
0.025000 0.000000 0.000000
0.031176 0.022387 0.000000
0.023637 0.042171 0.000000
0.035403 0.061211 0.000000
0.023111 0.079915 0.000000
0.034260 0.099677 0.000000
0.024127 0.118715 0.000000
0.029710 0.139888 0.000000
0.025191 0.160271 0.000000
0.029280 0.181845 0.000000
0.025709 0.202583 0.000000
0.026744 0.224875 0.000000
0.025734 0.246465 0.000000
0.025702 0.269135 0.000000
0.025923 0.291620 0.000000
0.025768 0.314519 0.000000
0.026195 0.337669 0.000000
0.025362 0.361034 0.000000
0.026060 0.384731 0.000000
0.024774 0.408623 0.000000
0.024730 0.431966 0.000000
0.050000 -0.075000 0.000000
0.050000 -0.050000 0.000000
0.050000 -0.025000 0.000000
0.050000 0.000000 0.000000
0.065728 0.020930 0.000000
0.062431 0.039563 0.000000
0.062946 0.059015 0.000000
0.063635 0.078833 0.000000
0.061743 0.098464 0.000000
0.062061 0.118812 0.000000
0.061086 0.138643 0.000000
0.060578 0.158621 0.000000
0.059315 0.179216 0.000000
0.058747 0.200114 0.000000
0.057955 0.220915 0.000000
0.057379 0.242402 0.000000
0.056580 0.263822 0.000000
0.055794 0.285979 0.000000
0.054818 0.308308 0.000000
0.053901 0.331372 0.000000
0.053114 0.354808 0.000000
0.052297 0.378190 0.000000
0.051559 0.403028 0.000000
0.050822 0.426805 0.000000
0.075000 -0.075000 0.000000
0.075000 -0.050000 0.000000
0.075000 -0.025000 0.000000
0.075000 0.000000 0.000000
0.105098 0.022906 0.000000
0.097912 0.039210 0.000000
0.098346 0.060008 0.000000
0.097572 0.077946 0.000000
0.096539 0.098414 0.000000
0.094342 0.117408 0.000000
0.093849 0.138024 0.000000
0.091435 0.158310 0.000000
0.090681 0.179427 0.000000
0.088710 0.200289 0.000000
0.087556 0.222169 0.000000
0.085689 0.243746 0.000000
0.084383 0.266088 0.000000
0.082921 0.288530 0.000000
0.081615 0.311436 0.000000
0.080497 0.334481 0.000000
0.079194 0.357928 0.000000
0.077894 0.381657 0.000000
0.076660 0.405744 0.000000
0.075205 0.428798 0.000000
0.100000 -0.075000 0.000000
0.100000 -0.050000 0.000000
0.100000 -0.025000 0.000000
0.100000 0.000000 0.000000
0.140934 0.020980 0.000000
0.134012 0.040068 0.000000
0.134117 0.058298 0.000000
0.133177 0.077905 0.000000
0.131001 0.096293 0.000000
0.129077 0.116113 0.000000
0.127011 0.135776 0.000000
0.125030 0.155705 0.000000
0.122624 0.176018 0.000000
0.120673 0.196778 0.000000
0.118520 0.217585 0.000000
0.116678 0.239291 0.000000
0.114602 0.260890 0.000000
0.112823 0.283403 0.000000
0.110732 0.305708 0.000000
0.108690 0.328732 0.000000
0.107015 0.352229 0.000000
0.104854 0.375510 0.000000
0.103417 0.400416 0.000000
0.101061 0.424482 0.000000
0.125000 -0.075000 0.000000
0.125000 -0.050000 0.000000
0.125000 -0.025000 0.000000
0.125000 0.000000 0.000000
0.181476 0.022480 0.000000
0.167848 0.036867 0.000000
0.173646 0.056503 0.000000
0.167920 0.074374 0.000000
0.166452 0.093169 0.000000
0.163297 0.113885 0.000000
0.160800 0.132690 0.000000
0.157711 0.153853 0.000000
0.154930 0.174296 0.000000
0.151960 0.195371 0.000000
0.149031 0.217049 0.000000
0.146035 0.238662 0.000000
0.143172 0.260957 0.000000
0.140270 0.283263 0.000000
0.138028 0.306384 0.000000
0.134894 0.329314 0.000000
0.133182 0.353241 0.000000
0.130103 0.376827 0.000000
0.128533 0.401205 0.000000
0.125601 0.424362 0.000000
0.150000 -0.075000 0.000000
0.150000 -0.050000 0.000000
0.150000 -0.025000 0.000000
0.150000 0.000000 0.000000
0.223944 0.021709 0.000000
0.204800 0.034702 0.000000
0.210250 0.054850 0.000000
0.205934 0.072570 0.000000
0.201486 0.091063 0.000000
0.199117 0.109994 0.000000
0.194538 0.129150 0.000000
0.191363 0.149146 0.000000
0.187403 0.168764 0.000000
0.183646 0.189912 0.000000
0.180107 0.210625 0.000000
0.176588 0.232438 0.000000
0.173143 0.254620 0.000000
0.169885 0.276953 0.000000
0.166840 0.300213 0.000000
0.163283 0.323251 0.000000
0.160734 0.347021 0.000000
0.157179 0.370816 0.000000
0.155217 0.395450 0.000000
0.151313 0.420217 0.000000
0.175000 -0.075000 0.000000
0.175000 -0.050000 0.000000
0.175000 -0.025000 0.000000
0.175000 0.000000 0.000000
0.266641 0.025284 0.000000
0.241301 0.034164 0.000000
0.251847 0.051524 0.000000
0.241709 0.067827 0.000000
0.240124 0.087015 0.000000
0.235377 0.106148 0.000000
0.230155 0.125234 0.000000
0.226453 0.145362 0.000000
0.220483 0.165659 0.000000
0.216480 0.187013 0.000000
0.211065 0.208230 0.000000
0.206629 0.230480 0.000000
0.202089 0.252551 0.000000
0.197668 0.275559 0.000000
0.194040 0.298568 0.000000
0.189676 0.321985 0.000000
0.186822 0.346000 0.000000
0.182638 0.370166 0.000000
0.180304 0.394672 0.000000
0.176062 0.418154 0.000000
0.200000 -0.075000 0.000000
0.200000 -0.050000 0.000000
0.200000 -0.025000 0.000000
0.200000 0.000000 0.000000
0.323902 0.022391 0.000000
0.286138 0.024408 0.000000
0.296363 0.048174 0.000000
0.281707 0.062631 0.000000
0.278687 0.080705 0.000000
0.272482 0.098554 0.000000
0.266362 0.116399 0.000000
0.260017 0.136557 0.000000
0.254046 0.156388 0.000000
0.248061 0.177619 0.000000
0.242005 0.199254 0.000000
0.236610 0.221667 0.000000
0.231614 0.244656 0.000000
0.226591 0.267825 0.000000
0.222527 0.291456 0.000000
0.217599 0.315244 0.000000
0.214407 0.339498 0.000000
0.209154 0.363520 0.000000
0.206773 0.388429 0.000000
0.201480 0.413632 0.000000
0.225000 -0.075000 0.000000
0.225000 -0.050000 0.000000
0.225000 -0.025000 0.000000
0.225000 0.000000 0.000000
0.354830 0.020703 0.000000
0.360523 0.043760 0.000000
0.315705 0.039141 0.000000
0.336641 0.061338 0.000000
0.316043 0.070581 0.000000
0.315934 0.092042 0.000000
0.303270 0.110251 0.000000
0.297050 0.130430 0.000000
0.287374 0.151702 0.000000
0.280197 0.173134 0.000000
0.272374 0.195542 0.000000
0.265911 0.218256 0.000000
0.260058 0.241294 0.000000
0.254101 0.264889 0.000000
0.249464 0.288458 0.000000
0.243848 0.312818 0.000000
0.240271 0.336820 0.000000
0.234694 0.361566 0.000000
0.232450 0.386973 0.000000
0.226517 0.410146 0.000000
0.250000 -0.075000 0.000000
0.250000 -0.050000 0.000000
0.250000 -0.025000 0.000000
0.250000 0.000000 0.000000
0.446155 0.020467 0.000000
0.407342 0.021046 0.000000
0.389039 0.032440 0.000000
0.388474 0.050435 0.000000
0.371907 0.060580 0.000000
0.353987 0.072042 0.000000
0.342977 0.092610 0.000000
0.330219 0.114057 0.000000
0.320569 0.137548 0.000000
0.310781 0.160207 0.000000
0.302632 0.184112 0.000000
0.294859 0.207872 0.000000
0.288260 0.232033 0.000000
0.281863 0.256369 0.000000
0.276514 0.280860 0.000000
0.271050 0.305493 0.000000
0.266409 0.330249 0.000000
0.261397 0.354984 0.000000
0.257000 0.380080 0.000000
0.251328 0.404596 0.000000
0.275000 -0.075000 0.000000
0.275000 -0.050000 0.000000
0.275000 -0.025000 0.000000
0.275000 0.000000 0.000000
0.300000 -0.075000 0.000000
0.300000 -0.050000 0.000000
0.300000 -0.025000 0.000000
0.300000 0.000000 0.000000
0.325000 -0.075000 0.000000
0.325000 -0.050000 0.000000
0.325000 -0.025000 0.000000
0.325000 0.000000 0.000000
0.350000 -0.075000 0.000000
0.350000 -0.050000 0.000000
0.350000 -0.025000 0.000000
0.350000 0.000000 0.000000
0.375000 -0.075000 0.000000
0.375000 -0.050000 0.000000
0.375000 -0.025000 0.000000
0.375000 0.000000 0.000000
0.400000 -0.075000 0.000000
0.400000 -0.050000 0.000000
0.400000 -0.025000 0.000000
0.400000 0.000000 0.000000
0.425000 -0.075000 0.000000
0.425000 -0.050000 0.000000
0.425000 -0.025000 0.000000
0.425000 0.000000 0.000000
0.450000 -0.075000 0.000000
0.450000 -0.050000 0.000000
0.450000 -0.025000 0.000000
0.450000 0.000000 0.000000
0.475000 -0.075000 0.000000
0.475000 -0.050000 0.000000
0.475000 -0.025000 0.000000
0.475000 0.000000 0.000000
0.500000 -0.075000 0.000000
0.500000 -0.050000 0.000000
0.500000 -0.025000 0.000000
0.500000 0.000000 0.000000
0.525000 -0.075000 0.000000
0.525000 -0.050000 0.000000
0.525000 -0.025000 0.000000
0.525000 0.000000 0.000000
0.550000 -0.075000 0.000000
0.550000 -0.050000 0.000000
0.550000 -0.025000 0.000000
0.550000 0.000000 0.000000
0.575000 -0.075000 0.000000
0.575000 -0.050000 0.000000
0.575000 -0.025000 0.000000
0.575000 0.000000 0.000000
0.600000 -0.075000 0.000000
0.600000 -0.050000 0.000000
0.600000 -0.025000 0.000000
0.600000 0.000000 0.000000
0.625000 -0.075000 0.000000
0.625000 -0.050000 0.000000
0.625000 -0.025000 0.000000
0.625000 0.000000 0.000000
0.650000 -0.075000 0.000000
0.650000 -0.050000 0.000000
0.650000 -0.025000 0.000000
0.650000 0.000000 0.000000
0.675000 -0.075000 0.000000
0.675000 -0.050000 0.000000
0.675000 -0.025000 0.000000
0.675000 0.000000 0.000000
0.700000 -0.075000 0.000000
0.700000 -0.050000 0.000000
0.700000 -0.025000 0.000000
0.700000 0.000000 0.000000
0.725000 -0.075000 0.000000
0.725000 -0.050000 0.000000
0.725000 -0.025000 0.000000
0.725000 0.000000 0.000000
0.750000 -0.075000 0.000000
0.750000 -0.050000 0.000000
0.750000 -0.025000 0.000000
0.750000 0.000000 0.000000
0.775000 -0.075000 0.000000
0.775000 -0.050000 0.000000
0.775000 -0.025000 0.000000
0.775000 0.000000 0.000000
0.800000 -0.075000 0.000000
0.800000 -0.050000 0.000000
0.800000 -0.025000 0.000000
0.800000 0.000000 0.000000
0.825000 -0.075000 0.000000
0.825000 -0.050000 0.000000
0.825000 -0.025000 0.000000
0.825000 0.000000 0.000000
0.850000 -0.075000 0.000000
0.850000 -0.050000 0.000000
0.850000 -0.025000 0.000000
0.850000 0.000000 0.000000
0.875000 -0.075000 0.000000
0.875000 -0.050000 0.000000
0.875000 -0.025000 0.000000
0.875000 0.000000 0.000000
0.900000 -0.075000 0.000000
0.900000 -0.050000 0.000000
0.900000 -0.025000 0.000000
0.900000 0.000000 0.000000
0.925000 -0.075000 0.000000
0.925000 -0.050000 0.000000
0.925000 -0.025000 0.000000
0.925000 0.000000 0.000000
0.950000 -0.075000 0.000000
0.950000 -0.050000 0.000000
0.950000 -0.025000 0.000000
0.950000 0.000000 0.000000
0.975000 -0.075000 0.000000
0.975000 -0.050000 0.000000
0.975000 -0.025000 0.000000
0.975000 0.000000 0.000000
1.000000 -0.075000 0.000000
1.000000 -0.050000 0.000000
1.000000 -0.025000 0.000000
1.000000 0.000000 0.000000
1.025000 -0.075000 0.000000
1.025000 -0.050000 0.000000
1.025000 -0.025000 0.000000
1.025000 0.000000 0.000000
1.025000 0.025000 0.000000
1.025000 0.050000 0.000000
1.025000 0.075000 0.000000
1.025000 0.100000 0.000000
1.025000 0.125000 0.000000
1.025000 0.150000 0.000000
1.025000 0.175000 0.000000
1.025000 0.200000 0.000000
1.025000 0.225000 0.000000
1.025000 0.250000 0.000000
1.025000 0.275000 0.000000
1.025000 0.300000 0.000000
1.025000 0.325000 0.000000
1.025000 0.350000 0.000000
1.025000 0.375000 0.000000
1.025000 0.400000 0.000000
1.025000 0.425000 0.000000
1.025000 0.450000 0.000000
1.025000 0.475000 0.000000
1.025000 0.500000 0.000000
1.025000 0.525000 0.000000
1.025000 0.550000 0.000000
1.025000 0.575000 0.000000
1.025000 0.600000 0.000000
1.050000 -0.075000 0.000000
1.050000 -0.050000 0.000000
1.050000 -0.025000 0.000000
1.050000 0.000000 0.000000
1.050000 0.025000 0.000000
1.050000 0.050000 0.000000
1.050000 0.075000 0.000000
1.050000 0.100000 0.000000
1.050000 0.125000 0.000000
1.050000 0.150000 0.000000
1.050000 0.175000 0.000000
1.050000 0.200000 0.000000
1.050000 0.225000 0.000000
1.050000 0.250000 0.000000
1.050000 0.275000 0.000000
1.050000 0.300000 0.000000
1.050000 0.325000 0.000000
1.050000 0.350000 0.000000
1.050000 0.375000 0.000000
1.050000 0.400000 0.000000
1.050000 0.425000 0.000000
1.050000 0.450000 0.000000
1.050000 0.475000 0.000000
1.050000 0.500000 0.000000
1.050000 0.525000 0.000000
1.050000 0.550000 0.000000
1.050000 0.575000 0.000000
1.050000 0.600000 0.000000
1.075000 -0.075000 0.000000
1.075000 -0.050000 0.000000
1.075000 -0.025000 0.000000
1.075000 0.000000 0.000000
1.075000 0.025000 0.000000
1.075000 0.050000 0.000000
1.075000 0.075000 0.000000
1.075000 0.100000 0.000000
1.075000 0.125000 0.000000
1.075000 0.150000 0.000000
1.075000 0.175000 0.000000
1.075000 0.200000 0.000000
1.075000 0.225000 0.000000
1.075000 0.250000 0.000000
1.075000 0.275000 0.000000
1.075000 0.300000 0.000000
1.075000 0.325000 0.000000
1.075000 0.350000 0.000000
1.075000 0.375000 0.000000
1.075000 0.400000 0.000000
1.075000 0.425000 0.000000
1.075000 0.450000 0.000000
1.075000 0.475000 0.000000
1.075000 0.500000 0.000000
1.075000 0.525000 0.000000
1.075000 0.550000 0.000000
1.075000 0.575000 0.000000
1.075000 0.600000 0.000000
1.100000 -0.075000 0.000000
1.100000 -0.050000 0.000000
1.100000 -0.025000 0.000000
1.100000 0.000000 0.000000
1.100000 0.025000 0.000000
1.100000 0.050000 0.000000
1.100000 0.075000 0.000000
1.100000 0.100000 0.000000
1.100000 0.125000 0.000000
1.100000 0.150000 0.000000
1.100000 0.175000 0.000000
1.100000 0.200000 0.000000
1.100000 0.225000 0.000000
1.100000 0.250000 0.000000
1.100000 0.275000 0.000000
1.100000 0.300000 0.000000
1.100000 0.325000 0.000000
1.100000 0.350000 0.000000
1.100000 0.375000 0.000000
1.100000 0.400000 0.000000
1.100000 0.425000 0.000000
1.100000 0.450000 0.000000
1.100000 0.475000 0.000000
1.100000 0.500000 0.000000
1.100000 0.525000 0.000000
1.100000 0.550000 0.000000
1.100000 0.575000 0.000000
1.100000 0.600000 0.000000
</DataArray>
</Points>
<PointData>
<DataArray NumberOfComponents='1' type='Int32' Name='ParticleType' format='ascii'>
3
3
3
3
3
3
3
3
3
3
3
3
3
3
3
3
3
3
3
3
3
3
3
3
3
3
2
2
3
3
3
3
3
3
3
3
3
3
3
3
3
3
3
3
3
3
3
3
3
3
3
3
3
3
2
2
3
3
2
2
2
2
2
2
2
2
2
2
2
2
2
2
2
2
2
2
2
2
2
2
2
2
2
2
3
3
2
2
2
2
2
2
2
2
2
2
2
2
2
2
2
2
2
2
2
2
2
2
2
2
2
2
3
3
2
2
0
0
0
0
0
0
0
0
0
0
0
0
0
0
0
0
0
0
0
0
3
3
2
2
0
0
0
0
0
0
0
0
0
0
0
0
0
0
0
0
0
0
0
0
3
3
2
2
0
0
0
0
0
0
0
0
0
0
0
0
0
0
0
0
0
0
0
0
3
3
2
2
0
0
0
0
0
0
0
0
0
0
0
0
0
0
0
0
0
0
0
0
3
3
2
2
0
0
0
0
0
0
0
0
0
0
0
0
0
0
0
0
0
0
0
0
3
3
2
2
0
0
0
0
0
0
0
0
0
0
0
0
0
0
0
0
0
0
0
0
3
3
2
2
0
0
0
0
0
0
0
0
0
0
0
0
0
0
0
0
0
0
0
0
3
3
2
2
0
0
0
0
0
0
0
0
0
0
0
0
0
0
0
0
0
0
0
0
3
3
2
2
0
0
0
0
0
0
0
0
0
0
0
0
0
0
0
0
0
0
0
0
3
3
2
2
0
0
0
0
0
0
0
0
0
0
0
0
0
0
0
0
0
0
0
0
3
3
2
2
3
3
2
2
3
3
2
2
3
3
2
2
3
3
2
2
3
3
2
2
3
3
2
2
3
3
2
2
3
3
2
2
3
3
2
2
3
3
2
2
3
3
2
2
3
3
2
2
3
3
2
2
3
3
2
2
3
3
2
2
3
3
2
2
3
3
2
2
3
3
2
2
3
3
2
2
3
3
2
2
3
3
2
2
3
3
2
2
3
3
2
2
3
3
2
2
3
3
2
2
3
3
2
2
3
3
2
2
3
3
2
2
3
3
2
2
3
3
2
2
2
2
2
2
2
2
2
2
2
2
2
2
2
2
2
2
2
2
2
2
2
2
2
2
3
3
2
2
2
2
2
2
2
2
2
2
2
2
2
2
2
2
2
2
2
2
2
2
2
2
2
2
3
3
3
3
3
3
3
3
3
3
3
3
3
3
3
3
3
3
3
3
3
3
3
3
3
3
2
2
3
3
3
3
3
3
3
3
3
3
3
3
3
3
3
3
3
3
3
3
3
3
3
3
3
3
2
2
</DataArray>
<DataArray NumberOfComponents='1' type='Float32' Name='Velocity' format='ascii'>
0.000000
0.000000
0.000000
0.000000
0.000000
0.000000
0.000000
0.000000
0.000000
0.000000
0.000000
0.000000
0.000000
0.000000
0.000000
0.000000
0.000000
0.000000
0.000000
0.000000
0.000000
0.000000
0.000000
0.000000
0.000000
0.000000
0.000000
0.000000
0.000000
0.000000
0.000000
0.000000
0.000000
0.000000
0.000000
0.000000
0.000000
0.000000
0.000000
0.000000
0.000000
0.000000
0.000000
0.000000
0.000000
0.000000
0.000000
0.000000
0.000000
0.000000
0.000000
0.000000
0.000000
0.000000
0.000000
0.000000
0.000000
0.000000
0.000000
0.000000
0.000000
0.000000
0.000000
0.000000
0.000000
0.000000
0.000000
0.000000
0.000000
0.000000
0.000000
0.000000
0.000000
0.000000
0.000000
0.000000
0.000000
0.000000
0.000000
0.000000
0.000000
0.000000
0.000000
0.000000
0.000000
0.000000
0.000000
0.000000
0.000000
0.000000
0.000000
0.000000
0.000000
0.000000
0.000000
0.000000
0.000000
0.000000
0.000000
0.000000
0.000000
0.000000
0.000000
0.000000
0.000000
0.000000
0.000000
0.000000
0.000000
0.000000
0.000000
0.000000
0.000000
0.000000
0.000000
0.000000
0.116129
0.130656
0.356684
0.260685
0.384881
0.416815
0.494785
0.479799
0.588866
0.618176
0.592304
0.621068
0.599018
0.643607
0.638852
0.654014
0.689041
0.713494
0.738625
0.770860
0.000000
0.000000
0.000000
0.000000
0.147483
0.138283
0.193904
0.256576
0.259935
0.308117
0.357327
0.394968
0.438564
0.491227
0.585541
0.643466
0.739812
0.769740
0.800001
0.850718
0.829783
0.861939
0.895034
0.854087
0.000000
0.000000
0.000000
0.000000
0.532106
0.371075
0.461480
0.470845
0.463274
0.549829
0.520289
0.600055
0.625494
0.646831
0.669747
0.687828
0.675195
0.708620
0.712330
0.733650
0.766096
0.751221
0.789958
0.813126
0.000000
0.000000
0.000000
0.000000
0.599765
0.333964
0.491601
0.484971
0.555242
0.476366
0.570724
0.553315
0.609561
0.619806
0.688834
0.717336
0.778187
0.818498
0.860986
0.868107
0.892237
0.933296
0.922351
0.899599
0.000000
0.000000
0.000000
0.000000
1.092401
0.517912
0.846753
0.745013
0.701637
0.752372
0.792903
0.716852
0.811142
0.802798
0.819046
0.825122
0.826683
0.834035
0.833961
0.870805
0.857458
0.847173
0.867092
0.915830
0.000000
0.000000
0.000000
0.000000
1.074109
0.338909
0.935866
0.816054
0.838923
0.835224
0.782734
0.888229
0.841021
0.856079
0.892912
0.890038
0.946167
0.976352
0.965067
1.003324
0.996509
1.006527
1.031144
0.967312
0.000000
0.000000
0.000000
0.000000
1.103522
0.769239
1.299446
0.955557
1.026576
0.999942
1.063320
1.048666
0.999530
1.073864
1.055416
1.067546
1.023283
1.035662
1.021051
1.025887
1.023651
0.986834
1.023637
1.024268
0.000000
0.000000
0.000000
0.000000
1.841242
1.364346
1.495912
1.026539
1.201811
1.258420
1.177941
1.152488
1.241069
1.217983
1.193471
1.155359
1.209577
1.165992
1.196756
1.161038
1.178670
1.158403
1.167383
1.101566
0.000000
0.000000
0.000000
0.000000
1.861479
1.881431
1.326113
1.663515
1.463123
1.587310
1.455796
1.525653
1.452385
1.387408
1.360043
1.347574
1.304744
1.264008
1.265880
1.229651
1.225734
1.205262
1.169287
1.205848
0.000000
0.000000
0.000000
0.000000
2.289307
2.089436
1.818900
2.212891
2.091645
1.901082
1.922832
1.745944
1.707936
1.630941
1.560700
1.515906
1.479344
1.445258
1.409911
1.395722
1.361585
1.359508
1.327800
1.336737
0.000000
0.000000
0.000000
0.000000
0.000000
0.000000
0.000000
0.000000
0.000000
0.000000
0.000000
0.000000
0.000000
0.000000
0.000000
0.000000
0.000000
0.000000
0.000000
0.000000
0.000000
0.000000
0.000000
0.000000
0.000000
0.000000
0.000000
0.000000
0.000000
0.000000
0.000000
0.000000
0.000000
0.000000
0.000000
0.000000
0.000000
0.000000
0.000000
0.000000
0.000000
0.000000
0.000000
0.000000
0.000000
0.000000
0.000000
0.000000
0.000000
0.000000
0.000000
0.000000
0.000000
0.000000
0.000000
0.000000
0.000000
0.000000
0.000000
0.000000
0.000000
0.000000
0.000000
0.000000
0.000000
0.000000
0.000000
0.000000
0.000000
0.000000
0.000000
0.000000
0.000000
0.000000
0.000000
0.000000
0.000000
0.000000
0.000000
0.000000
0.000000
0.000000
0.000000
0.000000
0.000000
0.000000
0.000000
0.000000
0.000000
0.000000
0.000000
0.000000
0.000000
0.000000
0.000000
0.000000
0.000000
0.000000
0.000000
0.000000
0.000000
0.000000
0.000000
0.000000
0.000000
0.000000
0.000000
0.000000
0.000000
0.000000
0.000000
0.000000
0.000000
0.000000
0.000000
0.000000
0.000000
0.000000
0.000000
0.000000
0.000000
0.000000
0.000000
0.000000
0.000000
0.000000
0.000000
0.000000
0.000000
0.000000
0.000000
0.000000
0.000000
0.000000
0.000000
0.000000
0.000000
0.000000
0.000000
0.000000
0.000000
0.000000
0.000000
0.000000
0.000000
0.000000
0.000000
0.000000
0.000000
0.000000
0.000000
0.000000
0.000000
0.000000
0.000000
0.000000
0.000000
0.000000
0.000000
0.000000
0.000000
0.000000
0.000000
0.000000
0.000000
0.000000
0.000000
0.000000
0.000000
0.000000
0.000000
0.000000
0.000000
0.000000
0.000000
0.000000
0.000000
0.000000
0.000000
0.000000
0.000000
0.000000
0.000000
0.000000
0.000000
0.000000
0.000000
0.000000
0.000000
0.000000
0.000000
0.000000
0.000000
0.000000
0.000000
0.000000
0.000000
0.000000
0.000000
0.000000
0.000000
0.000000
0.000000
0.000000
0.000000
0.000000
0.000000
0.000000
0.000000
0.000000
0.000000
0.000000
0.000000
0.000000
0.000000
0.000000
0.000000
0.000000
0.000000
0.000000
0.000000
0.000000
0.000000
0.000000
0.000000
0.000000
0.000000
0.000000
0.000000
0.000000
0.000000
0.000000
</DataArray>
<DataArray NumberOfComponents='1' type='Float32' Name='pressure' format='ascii'>
0.000000
0.000000
0.000000
0.000000
0.000000
0.000000
0.000000
0.000000
0.000000
0.000000
0.000000
0.000000
0.000000
0.000000
0.000000
0.000000
0.000000
0.000000
0.000000
0.000000
0.000000
0.000000
0.000000
0.000000
0.000000
0.000000
0.000000
0.000000
0.000000
0.000000
0.000000
0.000000
0.000000
0.000000
0.000000
0.000000
0.000000
0.000000
0.000000
0.000000
0.000000
0.000000
0.000000
0.000000
0.000000
0.000000
0.000000
0.000000
0.000000
0.000000
0.000000
0.000000
0.000000
0.000000
0.000000
0.000000
0.000000
0.000000
2872.075928
2614.022217
2016.332886
2845.007080
3068.912109
1532.263428
1976.036377
1097.252563
450.806213
748.354431
468.388672
752.426819
557.626709
42.654522
0.000000
0.000000
0.000000
0.000000
0.000000
0.000000
0.000000
0.000000
0.000000
0.000000
0.000000
0.000000
0.000000
0.000000
3239.062256
2507.577881
1280.303955
3238.131836
3429.525146
1201.660767
2506.618164
2001.516602
1001.792908
1207.419189
1127.972534
1747.136963
1758.170288
1197.245728
497.257324
114.816162
0.000000
251.486984
0.000000
0.000000
0.000000
0.000000
0.000000
0.000000
0.000000
0.000000
0.000000
0.000000
4619.951660
3611.930176
2299.700684
3218.676758
1594.484985
2644.973389
2218.659912
2646.076660
1392.233521
2334.121582
1788.816528
2300.398438
1793.536499
1638.734497
1219.502808
1145.121948
899.910217
664.099976
758.270630
592.146240
143.033630
0.000000
0.000000
0.000000
5443.573730
4053.892090
4011.190186
3938.832764
4044.696533
3738.576660
3464.768066
2964.392334
2890.591797
2472.980225
2295.823730
2010.421631
1835.302979
1496.704834
1549.849243
1354.859131
1181.683716
838.420776
859.410034
526.806274
338.731659
0.000000
0.000000
0.000000
5836.671387
4808.306152
3083.241455
2802.151611
2461.456787
2432.239014
2019.392944
2447.650391
1977.327271
2079.806641
1940.774414
1789.276489
1702.455322
1850.843384
1464.622803
1224.556641
980.466309
743.218140
585.094116
489.766815
410.128967
0.000000
0.000000
0.000000
5330.811523
3124.269043
3951.916016
3444.939697
4026.552246
2917.641846
3664.456055
2525.260742
2742.951416
2349.857666
2200.173584
2059.181885
1728.849487
1437.455200
1166.368896
1090.441284
956.343323
810.921326
838.173950
392.305267
231.438919
0.000000
0.000000
0.000000
5384.976562
4052.939453
3058.854980
2286.614502
2342.630859
2500.885986
1694.762329
2116.285889
2443.641357
1551.736206
1963.766968
1647.584961
1520.907837
1592.031860
1471.054932
1293.847900
1063.075684
840.880615
648.424744
558.028198
300.896667
0.000000
0.000000
0.000000
5697.428711
5013.899414
4952.861816
2204.210449
3033.827637
2213.313965
3017.800537
2078.449219
1912.894897
2162.020996
1731.750244
1598.210205
1603.975952
1090.151245
1077.677124
797.895569
664.194336
637.657776
510.896271
180.147598
344.136322
0.000000
0.000000
0.000000
4883.019043
3603.556152
1531.755005
3118.791748
1717.200439
2086.835693
1433.180054
1393.236450
1948.822144
1763.248291
1188.239014
1383.661011
1264.671631
1196.150513
1105.997803
951.429688
1076.459595
548.892822
808.776062
420.369049
362.989441
0.000000
0.000000
0.000000
3411.133789
2118.532471
987.746216
3041.630859
2466.625732
1689.817383
2102.559570
2169.819824
1676.596680
799.935852
1281.990112
1039.565308
1068.267456
691.723999
620.532715
509.064301
441.528229
310.950043
274.090942
215.742828
269.941681
0.000000
0.000000
0.000000
4304.312012
4750.271973
0.000000
2097.117188
1576.583008
2210.777344
258.548859
1178.072754
519.431946
1093.880249
862.046509
968.915161
477.044189
693.151672
618.829895
604.644714
440.258148
474.926117
386.884155
360.722473
225.610748
0.000000
0.000000
0.000000
1695.408203
1035.583496
0.000000
0.000000
0.000000
0.000000
0.000000
0.000000
0.000000
0.000000
0.000000
0.000000
0.000000
0.000000
0.000000
0.000000
0.000000
0.000000
0.000000
0.000000
0.000000
0.000000
0.000000
0.000000
2193.060303
863.594849
0.000000
0.000000
1709.437134
1319.070679
0.000000
0.000000
3328.667725
3428.593262
0.000000
0.000000
3645.112061
2699.393799
0.000000
0.000000
1612.545044
0.000000
0.000000
0.000000
2224.342285
0.000000
0.000000
0.000000
1872.395020
0.000000
0.000000
0.000000
2110.900146
0.000000
0.000000
0.000000
0.000000
0.000000
0.000000
0.000000
0.000000
0.000000
0.000000
0.000000
0.000000
0.000000
0.000000
0.000000
0.000000
0.000000
0.000000
0.000000
0.000000
0.000000
0.000000
0.000000
0.000000
0.000000
0.000000
0.000000
0.000000
0.000000
0.000000
0.000000
0.000000
0.000000
0.000000
0.000000
0.000000
0.000000
0.000000
0.000000
0.000000
0.000000
0.000000
0.000000
0.000000
0.000000
0.000000
0.000000
0.000000
0.000000
0.000000
0.000000
0.000000
0.000000
0.000000
0.000000
0.000000
0.000000
0.000000
0.000000
0.000000
0.000000
0.000000
0.000000
0.000000
0.000000
0.000000
0.000000
0.000000
0.000000
0.000000
0.000000
0.000000
0.000000
0.000000
0.000000
0.000000
0.000000
0.000000
0.000000
0.000000
0.000000
0.000000
0.000000
0.000000
0.000000
0.000000
0.000000
0.000000
0.000000
0.000000
0.000000
0.000000
0.000000
0.000000
0.000000
0.000000
0.000000
0.000000
0.000000
0.000000
0.000000
0.000000
0.000000
0.000000
0.000000
0.000000
0.000000
0.000000
0.000000
0.000000
0.000000
0.000000
0.000000
0.000000
0.000000
0.000000
0.000000
0.000000
0.000000
0.000000
0.000000
0.000000
0.000000
0.000000
0.000000
0.000000
0.000000
0.000000
0.000000
0.000000
0.000000
0.000000
0.000000
0.000000
0.000000
0.000000
0.000000
0.000000
0.000000
0.000000
0.000000
0.000000
0.000000
0.000000
0.000000
0.000000
0.000000
0.000000
0.000000
0.000000
0.000000
0.000000
0.000000
0.000000
0.000000
0.000000
0.000000
0.000000
0.000000
0.000000
0.000000
0.000000
0.000000
0.000000
0.000000
0.000000
0.000000
0.000000
0.000000
0.000000
0.000000
0.000000
0.000000
0.000000
0.000000
0.000000
0.000000
0.000000
0.000000
0.000000
0.000000
0.000000
0.000000
0.000000
0.000000
0.000000
0.000000
0.000000
0.000000
0.000000
0.000000
0.000000
0.000000
0.000000
0.000000
0.000000
0.000000
0.000000
0.000000
0.000000
0.000000
</DataArray>
</PointData>
<Cells>
<DataArray type='Int32' Name='connectivity' format='ascii'>
0
1
2
3
4
5
6
7
8
9
10
11
12
13
14
15
16
17
18
19
20
21
22
23
24
25
26
27
28
29
30
31
32
33
34
35
36
37
38
39
40
41
42
43
44
45
46
47
48
49
50
51
52
53
54
55
56
57
58
59
60
61
62
63
64
65
66
67
68
69
70
71
72
73
74
75
76
77
78
79
80
81
82
83
84
85
86
87
88
89
90
91
92
93
94
95
96
97
98
99
100
101
102
103
104
105
106
107
108
109
110
111
112
113
114
115
116
117
118
119
120
121
122
123
124
125
126
127
128
129
130
131
132
133
134
135
136
137
138
139
140
141
142
143
144
145
146
147
148
149
150
151
152
153
154
155
156
157
158
159
160
161
162
163
164
165
166
167
168
169
170
171
172
173
174
175
176
177
178
179
180
181
182
183
184
185
186
187
188
189
190
191
192
193
194
195
196
197
198
199
200
201
202
203
204
205
206
207
208
209
210
211
212
213
214
215
216
217
218
219
220
221
222
223
224
225
226
227
228
229
230
231
232
233
234
235
236
237
238
239
240
241
242
243
244
245
246
247
248
249
250
251
252
253
254
255
256
257
258
259
260
261
262
263
264
265
266
267
268
269
270
271
272
273
274
275
276
277
278
279