<?xml version='1.0' encoding='UTF-8'?>
<VTKFile xmlns='VTK' byte_order='LittleEndian' version='0.1' type='UnstructuredGrid'>
<UnstructuredGrid>
<Piece NumberOfCells='584' NumberOfPoints='584'>
<Points>
<DataArray NumberOfComponents='3' type='Float32' Name='Position' format='ascii'>
-0.075000 -0.075000 0.000000
-0.075000 -0.050000 0.000000
-0.075000 -0.025000 0.000000
-0.075000 0.000000 0.000000
-0.075000 0.025000 0.000000
-0.075000 0.050000 0.000000
-0.075000 0.075000 0.000000
-0.075000 0.100000 0.000000
-0.075000 0.125000 0.000000
-0.075000 0.150000 0.000000
-0.075000 0.175000 0.000000
-0.075000 0.200000 0.000000
-0.075000 0.225000 0.000000
-0.075000 0.250000 0.000000
-0.075000 0.275000 0.000000
-0.075000 0.300000 0.000000
-0.075000 0.325000 0.000000
-0.075000 0.350000 0.000000
-0.075000 0.375000 0.000000
-0.075000 0.400000 0.000000
-0.075000 0.425000 0.000000
-0.075000 0.450000 0.000000
-0.075000 0.475000 0.000000
-0.075000 0.500000 0.000000
-0.075000 0.525000 0.000000
-0.075000 0.550000 0.000000
-0.075000 0.575000 0.000000
-0.075000 0.600000 0.000000
-0.050000 -0.075000 0.000000
-0.050000 -0.050000 0.000000
-0.050000 -0.025000 0.000000
-0.050000 0.000000 0.000000
-0.050000 0.025000 0.000000
-0.050000 0.050000 0.000000
-0.050000 0.075000 0.000000
-0.050000 0.100000 0.000000
-0.050000 0.125000 0.000000
-0.050000 0.150000 0.000000
-0.050000 0.175000 0.000000
-0.050000 0.200000 0.000000
-0.050000 0.225000 0.000000
-0.050000 0.250000 0.000000
-0.050000 0.275000 0.000000
-0.050000 0.300000 0.000000
-0.050000 0.325000 0.000000
-0.050000 0.350000 0.000000
-0.050000 0.375000 0.000000
-0.050000 0.400000 0.000000
-0.050000 0.425000 0.000000
-0.050000 0.450000 0.000000
-0.050000 0.475000 0.000000
-0.050000 0.500000 0.000000
-0.050000 0.525000 0.000000
-0.050000 0.550000 0.000000
-0.050000 0.575000 0.000000
-0.050000 0.600000 0.000000
-0.025000 -0.075000 0.000000
-0.025000 -0.050000 0.000000
-0.025000 -0.025000 0.000000
-0.025000 0.000000 0.000000
-0.025000 0.025000 0.000000
-0.025000 0.050000 0.000000
-0.025000 0.075000 0.000000
-0.025000 0.100000 0.000000
-0.025000 0.125000 0.000000
-0.025000 0.150000 0.000000
-0.025000 0.175000 0.000000
-0.025000 0.200000 0.000000
-0.025000 0.225000 0.000000
-0.025000 0.250000 0.000000
-0.025000 0.275000 0.000000
-0.025000 0.300000 0.000000
-0.025000 0.325000 0.000000
-0.025000 0.350000 0.000000
-0.025000 0.375000 0.000000
-0.025000 0.400000 0.000000
-0.025000 0.425000 0.000000
-0.025000 0.450000 0.000000
-0.025000 0.475000 0.000000
-0.025000 0.500000 0.000000
-0.025000 0.525000 0.000000
-0.025000 0.550000 0.000000
-0.025000 0.575000 0.000000
-0.025000 0.600000 0.000000
0.000000 -0.075000 0.000000
0.000000 -0.050000 0.000000
0.000000 -0.025000 0.000000
0.000000 0.000000 0.000000
0.000000 0.025000 0.000000
0.000000 0.050000 0.000000
0.000000 0.075000 0.000000
0.000000 0.100000 0.000000
0.000000 0.125000 0.000000
0.000000 0.150000 0.000000
0.000000 0.175000 0.000000
0.000000 0.200000 0.000000
0.000000 0.225000 0.000000
0.000000 0.250000 0.000000
0.000000 0.275000 0.000000
0.000000 0.300000 0.000000
0.000000 0.325000 0.000000
0.000000 0.350000 0.000000
0.000000 0.375000 0.000000
0.000000 0.400000 0.000000
0.000000 0.425000 0.000000
0.000000 0.450000 0.000000
0.000000 0.475000 0.000000
0.000000 0.500000 0.000000
0.000000 0.525000 0.000000
0.000000 0.550000 0.000000
0.000000 0.575000 0.000000
0.000000 0.600000 0.000000
0.025000 -0.075000 0.000000
0.025000 -0.050000 0.000000
0.025000 -0.025000 0.000000
0.025000 0.000000 0.000000
0.231939 0.024352 0.000000
0.210874 0.023907 0.000000
0.175502 0.023386 0.000000
0.123631 0.024430 0.000000
0.316088 0.043202 0.000000
0.060993 0.021231 0.000000
0.398417 0.022322 0.000000
0.259860 0.024038 0.000000
0.152393 0.026814 0.000000
0.123854 0.047456 0.000000
0.201323 0.046738 0.000000
0.165616 0.041862 0.000000
0.102603 0.023718 0.000000
0.029864 0.023088 0.000000
0.022952 0.043652 0.000000
0.028212 0.069923 0.000000
0.083447 0.038004 0.000000
0.073181 0.057225 0.000000
0.045374 0.067931 0.000000
0.088435 0.065989 0.000000
0.050000 -0.075000 0.000000
0.050000 -0.050000 0.000000
0.050000 -0.025000 0.000000
0.050000 0.000000 0.000000
0.277233 0.031987 0.000000
0.383308 0.082633 0.000000
0.506161 0.053408 0.000000
0.472083 0.056630 0.000000
0.482487 0.082391 0.000000
0.535249 0.072156 0.000000
0.412718 0.040875 0.000000
0.615723 0.065314 0.000000
0.326046 0.023952 0.000000
0.339148 0.050777 0.000000
0.442274 0.069483 0.000000
0.353955 0.071946 0.000000
0.052831 0.044145 0.000000
0.369686 0.041420 0.000000
0.194432 0.069575 0.000000
0.228964 0.049052 0.000000
0.151892 0.067724 0.000000
0.213634 0.075681 0.000000
0.108238 0.075239 0.000000
0.118854 0.064933 0.000000
0.075000 -0.075000 0.000000
0.075000 -0.050000 0.000000
0.075000 -0.025000 0.000000
0.075000 0.000000 0.000000
0.301329 0.023839 0.000000
0.445987 0.039666 0.000000
0.465424 0.026684 0.000000
0.433323 0.027255 0.000000
0.669616 0.062349 0.000000
0.728928 0.020781 0.000000
0.758797 0.029651 0.000000
0.552917 0.069367 0.000000
0.696109 0.049989 0.000000
0.677798 0.026382 0.000000
0.508596 0.025764 0.000000
0.379135 0.113095 0.000000
0.382422 0.057311 0.000000
0.318651 0.068220 0.000000
0.271420 0.068293 0.000000
0.236908 0.067787 0.000000
0.255634 0.067844 0.000000
0.400485 0.053065 0.000000
0.333159 0.072176 0.000000
0.180939 0.063163 0.000000
0.100000 -0.075000 0.000000
0.100000 -0.050000 0.000000
0.100000 -0.025000 0.000000
0.100000 0.000000 0.000000
0.529997 0.025846 0.000000
0.485499 0.025844 0.000000
0.700329 0.026639 0.000000
0.896468 0.021727 0.000000
0.365269 0.021600 0.000000
0.828865 0.023323 0.000000
0.868906 0.049156 0.000000
0.799713 0.076272 0.000000
0.779786 0.022730 0.000000
0.798625 0.029783 0.000000
0.548429 0.031898 0.000000
0.569482 0.022349 0.000000
0.648938 0.060691 0.000000
0.713680 0.048521 0.000000
0.583649 0.069598 0.000000
0.277128 0.054365 0.000000
0.601406 0.047022 0.000000
0.637825 0.075055 0.000000
0.459215 0.079084 0.000000
0.436071 0.085369 0.000000
0.125000 -0.075000 0.000000
0.125000 -0.050000 0.000000
0.125000 -0.025000 0.000000
0.125000 0.000000 0.000000
0.911033 0.040679 0.000000
0.820190 0.046535 0.000000
1.004127 0.115187 0.000000
0.961397 0.022588 0.000000
0.983799 0.185577 0.000000
0.601266 0.023250 0.000000
0.906498 0.093241 0.000000
0.943981 0.151218 0.000000
0.902925 0.067951 0.000000
0.844296 0.069765 0.000000
0.922119 0.106040 0.000000
0.886381 0.111158 0.000000
0.784305 0.084871 0.000000
0.640975 0.041938 0.000000
0.568837 0.045673 0.000000
0.655727 0.022343 0.000000
0.883851 0.063556 0.000000
0.568329 0.081735 0.000000
0.749463 0.072787 0.000000
0.502783 0.066173 0.000000
0.150000 -0.075000 0.000000
0.150000 -0.050000 0.000000
0.150000 -0.025000 0.000000
0.150000 0.000000 0.000000
0.946746 0.199499 0.000000
0.989022 0.104952 0.000000
0.977762 0.333864 0.000000
0.896691 0.337223 0.000000
0.999970 0.074823 0.000000
0.884729 0.385571 0.000000
0.961626 0.108341 0.000000
0.899879 0.177364 0.000000
0.971551 0.086134 0.000000
0.961617 0.177562 0.000000
0.967457 0.043312 0.000000
0.870720 0.031420 0.000000
0.925504 0.027430 0.000000
0.943545 0.043375 0.000000
0.846759 0.030508 0.000000
0.778922 0.069907 0.000000
0.733520 0.054721 0.000000
0.801040 0.053588 0.000000
0.749771 0.050249 0.000000
0.622013 0.027212 0.000000
0.175000 -0.075000 0.000000
0.175000 -0.050000 0.000000
0.175000 -0.025000 0.000000
0.175000 0.000000 0.000000
0.656973 0.291912 0.000000
1.003551 0.163767 0.000000
1.005158 0.269394 0.000000
0.999756 0.196195 0.000000
0.983084 0.149152 0.000000
0.926791 0.343868 0.000000
0.989888 0.022375 0.000000
0.965961 0.224326 0.000000
0.903959 0.247140 0.000000
1.002457 0.040555 0.000000
0.962198 0.242097 0.000000
0.993405 0.237525 0.000000
0.864073 0.171236 0.000000
0.975778 0.137181 0.000000
0.934552 0.085786 0.000000
0.926156 0.231734 0.000000
0.956269 0.074639 0.000000
0.928624 0.132801 0.000000
0.874942 0.099699 0.000000
0.903389 0.133359 0.000000
0.200000 -0.075000 0.000000
0.200000 -0.050000 0.000000
0.200000 -0.025000 0.000000
0.200000 0.000000 0.000000
0.855380 0.769299 0.000000
0.941442 0.289119 0.000000
0.915526 0.461619 0.000000
0.989951 0.347242 0.000000
0.909359 0.384969 0.000000
0.924508 0.414616 0.000000
0.959467 0.448183 0.000000
0.985356 0.394164 0.000000
0.954955 0.335685 0.000000
0.874276 0.290620 0.000000
0.994345 0.378378 0.000000
0.985381 0.059838 0.000000
0.820651 0.280041 0.000000
0.912154 0.211827 0.000000
0.945113 0.173442 0.000000
0.934665 0.266556 0.000000
0.980554 0.287306 0.000000
0.928559 0.195197 0.000000
0.944737 0.122673 0.000000
0.927725 0.062594 0.000000
0.225000 -0.075000 0.000000
0.225000 -0.050000 0.000000
0.225000 -0.025000 0.000000
0.225000 0.000000 0.000000
0.925931 0.431132 0.000000
0.961010 1.268808 0.000000
0.948821 0.370796 0.000000
0.835294 0.329165 0.000000
0.670510 0.288442 0.000000
0.834344 0.399108 0.000000
0.935061 0.476817 0.000000
0.994715 0.456889 0.000000
0.971484 0.406395 0.000000
0.899162 0.410046 0.000000
0.986497 0.413133 0.000000
0.872691 0.390684 0.000000
0.678371 0.248252 0.000000
0.820252 0.224991 0.000000
0.918181 0.353317 0.000000
0.955050 0.354409 0.000000
0.851544 0.269898 0.000000
0.892893 0.229741 0.000000
0.892221 0.192044 0.000000
0.898698 0.155136 0.000000
0.250000 -0.075000 0.000000
0.250000 -0.050000 0.000000
0.250000 -0.025000 0.000000
0.250000 0.000000 0.000000
0.968620 1.047322 0.000000
0.833801 0.968612 0.000000
0.834631 0.503488 0.000000
0.898109 0.536769 0.000000
0.725591 1.080771 0.000000
0.928948 0.616945 0.000000
0.739570 0.928726 0.000000
0.814862 0.789739 0.000000
0.688461 0.423786 0.000000
0.945285 0.453448 0.000000
0.791710 0.255526 0.000000
0.852652 0.384190 0.000000
0.896764 0.427142 0.000000
0.596019 0.079470 0.000000
0.858546 0.342586 0.000000
0.832021 0.089196 0.000000
0.761682 0.336308 0.000000
0.989064 0.219224 0.000000
0.880688 0.240767 0.000000
0.986302 0.261280 0.000000
0.275000 -0.075000 0.000000
0.275000 -0.050000 0.000000
0.275000 -0.025000 0.000000
0.275000 0.000000 0.000000
0.300000 -0.075000 0.000000
0.300000 -0.050000 0.000000
0.300000 -0.025000 0.000000
0.300000 0.000000 0.000000
0.325000 -0.075000 0.000000
0.325000 -0.050000 0.000000
0.325000 -0.025000 0.000000
0.325000 0.000000 0.000000
0.350000 -0.075000 0.000000
0.350000 -0.050000 0.000000
0.350000 -0.025000 0.000000
0.350000 0.000000 0.000000
0.375000 -0.075000 0.000000
0.375000 -0.050000 0.000000
0.375000 -0.025000 0.000000
0.375000 0.000000 0.000000
0.400000 -0.075000 0.000000
0.400000 -0.050000 0.000000
0.400000 -0.025000 0.000000
0.400000 0.000000 0.000000
0.425000 -0.075000 0.000000
0.425000 -0.050000 0.000000
0.425000 -0.025000 0.000000
0.425000 0.000000 0.000000
0.450000 -0.075000 0.000000
0.450000 -0.050000 0.000000
0.450000 -0.025000 0.000000
0.450000 0.000000 0.000000
0.475000 -0.075000 0.000000
0.475000 -0.050000 0.000000
0.475000 -0.025000 0.000000
0.475000 0.000000 0.000000
0.500000 -0.075000 0.000000
0.500000 -0.050000 0.000000
0.500000 -0.025000 0.000000
0.500000 0.000000 0.000000
0.525000 -0.075000 0.000000
0.525000 -0.050000 0.000000
0.525000 -0.025000 0.000000
0.525000 0.000000 0.000000
0.550000 -0.075000 0.000000
0.550000 -0.050000 0.000000
0.550000 -0.025000 0.000000
0.550000 0.000000 0.000000
0.575000 -0.075000 0.000000
0.575000 -0.050000 0.000000
0.575000 -0.025000 0.000000
0.575000 0.000000 0.000000
0.600000 -0.075000 0.000000
0.600000 -0.050000 0.000000
0.600000 -0.025000 0.000000
0.600000 0.000000 0.000000
0.625000 -0.075000 0.000000
0.625000 -0.050000 0.000000
0.625000 -0.025000 0.000000
0.625000 0.000000 0.000000
0.650000 -0.075000 0.000000
0.650000 -0.050000 0.000000
0.650000 -0.025000 0.000000
0.650000 0.000000 0.000000
0.675000 -0.075000 0.000000
0.675000 -0.050000 0.000000
0.675000 -0.025000 0.000000
0.675000 0.000000 0.000000
0.700000 -0.075000 0.000000
0.700000 -0.050000 0.000000
0.700000 -0.025000 0.000000
0.700000 0.000000 0.000000
0.725000 -0.075000 0.000000
0.725000 -0.050000 0.000000
0.725000 -0.025000 0.000000
0.725000 0.000000 0.000000
0.750000 -0.075000 0.000000
0.750000 -0.050000 0.000000
0.750000 -0.025000 0.000000
0.750000 0.000000 0.000000
0.775000 -0.075000 0.000000
0.775000 -0.050000 0.000000
0.775000 -0.025000 0.000000
0.775000 0.000000 0.000000
0.800000 -0.075000 0.000000
0.800000 -0.050000 0.000000
0.800000 -0.025000 0.000000
0.800000 0.000000 0.000000
0.825000 -0.075000 0.000000
0.825000 -0.050000 0.000000
0.825000 -0.025000 0.000000
0.825000 0.000000 0.000000
0.850000 -0.075000 0.000000
0.850000 -0.050000 0.000000
0.850000 -0.025000 0.000000
0.850000 0.000000 0.000000
0.875000 -0.075000 0.000000
0.875000 -0.050000 0.000000
0.875000 -0.025000 0.000000
0.875000 0.000000 0.000000
0.900000 -0.075000 0.000000
0.900000 -0.050000 0.000000
0.900000 -0.025000 0.000000
0.900000 0.000000 0.000000
0.925000 -0.075000 0.000000
0.925000 -0.050000 0.000000
0.925000 -0.025000 0.000000
0.925000 0.000000 0.000000
0.950000 -0.075000 0.000000
0.950000 -0.050000 0.000000
0.950000 -0.025000 0.000000
0.950000 0.000000 0.000000
0.975000 -0.075000 0.000000
0.975000 -0.050000 0.000000
0.975000 -0.025000 0.000000
0.975000 0.000000 0.000000
1.000000 -0.075000 0.000000
1.000000 -0.050000 0.000000
1.000000 -0.025000 0.000000
1.000000 0.000000 0.000000
1.025000 -0.075000 0.000000
1.025000 -0.050000 0.000000
1.025000 -0.025000 0.000000
1.025000 0.000000 0.000000
1.025000 0.025000 0.000000
1.025000 0.050000 0.000000
1.025000 0.075000 0.000000
1.025000 0.100000 0.000000
1.025000 0.125000 0.000000
1.025000 0.150000 0.000000
1.025000 0.175000 0.000000
1.025000 0.200000 0.000000
1.025000 0.225000 0.000000
1.025000 0.250000 0.000000
1.025000 0.275000 0.000000
1.025000 0.300000 0.000000
1.025000 0.325000 0.000000
1.025000 0.350000 0.000000
1.025000 0.375000 0.000000
1.025000 0.400000 0.000000
1.025000 0.425000 0.000000
1.025000 0.450000 0.000000
1.025000 0.475000 0.000000
1.025000 0.500000 0.000000
1.025000 0.525000 0.000000
1.025000 0.550000 0.000000
1.025000 0.575000 0.000000
1.025000 0.600000 0.000000
1.050000 -0.075000 0.000000
1.050000 -0.050000 0.000000
1.050000 -0.025000 0.000000
1.050000 0.000000 0.000000
1.050000 0.025000 0.000000
1.050000 0.050000 0.000000
1.050000 0.075000 0.000000
1.050000 0.100000 0.000000
1.050000 0.125000 0.000000
1.050000 0.150000 0.000000
1.050000 0.175000 0.000000
1.050000 0.200000 0.000000
1.050000 0.225000 0.000000
1.050000 0.250000 0.000000
1.050000 0.275000 0.000000
1.050000 0.300000 0.000000
1.050000 0.325000 0.000000
1.050000 0.350000 0.000000
1.050000 0.375000 0.000000
1.050000 0.400000 0.000000
1.050000 0.425000 0.000000
1.050000 0.450000 0.000000
1.050000 0.475000 0.000000
1.050000 0.500000 0.000000
1.050000 0.525000 0.000000
1.050000 0.550000 0.000000
1.050000 0.575000 0.000000
1.050000 0.600000 0.000000
1.075000 -0.075000 0.000000
1.075000 -0.050000 0.000000
1.075000 -0.025000 0.000000
1.075000 0.000000 0.000000
1.075000 0.025000 0.000000
1.075000 0.050000 0.000000
1.075000 0.075000 0.000000
1.075000 0.100000 0.000000
1.075000 0.125000 0.000000
1.075000 0.150000 0.000000
1.075000 0.175000 0.000000
1.075000 0.200000 0.000000
1.075000 0.225000 0.000000
1.075000 0.250000 0.000000
1.075000 0.275000 0.000000
1.075000 0.300000 0.000000
1.075000 0.325000 0.000000
1.075000 0.350000 0.000000
1.075000 0.375000 0.000000
1.075000 0.400000 0.000000
1.075000 0.425000 0.000000
1.075000 0.450000 0.000000
1.075000 0.475000 0.000000
1.075000 0.500000 0.000000
1.075000 0.525000 0.000000
1.075000 0.550000 0.000000
1.075000 0.575000 0.000000
1.075000 0.600000 0.000000
1.100000 -0.075000 0.000000
1.100000 -0.050000 0.000000
1.100000 -0.025000 0.000000
1.100000 0.000000 0.000000
1.100000 0.025000 0.000000
1.100000 0.050000 0.000000
1.100000 0.075000 0.000000
1.100000 0.100000 0.000000
1.100000 0.125000 0.000000
1.100000 0.150000 0.000000
1.100000 0.175000 0.000000
1.100000 0.200000 0.000000
1.100000 0.225000 0.000000
1.100000 0.250000 0.000000
1.100000 0.275000 0.000000
1.100000 0.300000 0.000000
1.100000 0.325000 0.000000
1.100000 0.350000 0.000000
1.100000 0.375000 0.000000
1.100000 0.400000 0.000000
1.100000 0.425000 0.000000
1.100000 0.450000 0.000000
1.100000 0.475000 0.000000
1.100000 0.500000 0.000000
1.100000 0.525000 0.000000
1.100000 0.550000 0.000000
1.100000 0.575000 0.000000
1.100000 0.600000 0.000000
</DataArray>
</Points>
<PointData>
<DataArray NumberOfComponents='1' type='Int32' Name='ParticleType' format='ascii'>
3
3
3
3
3
3
3
3
3
3
3
3
3
3
3
3
3
3
3
3
3
3
3
3
3
3
2
2
3
3
3
3
3
3
3
3
3
3
3
3
3
3
3
3
3
3
3
3
3
3
3
3
3
3
2
2
3
3
2
2
2
2
2
2
2
2
2
2
2
2
2
2
2
2
2
2
2
2
2
2
2
2
2
2
3
3
2
2
2
2
2
2
2
2
2
2
2
2
2
2
2
2
2
2
2
2
2
2
2
2
2
2
3
3
2
2
0
0
0
0
0
0
0
0
0
0
0
0
0
0
0
0
0
0
0
0
3
3
2
2
0
0
0
0
0
0
0
0
0
0
0
0
0
0
0
0
0
0
0
0
3
3
2
2
0
0
0
0
0
0
0
0
0
0
0
0
0
0
0
0
0
0
0
0
3
3
2
2
0
0
0
0
0
0
0
0
0
0
0
0
0
0
0
0
0
0
0
0
3
3
2
2
0
0
0
0
0
0
0
0
0
0
0
0
0
0
0
0
0
0
0
0
3
3
2
2
0
0
0
0
0
0
0
0
0
0
0
0
0
0
0
0
0
0
0
0
3
3
2
2
0
0
0
0
0
0
0
0
0
0
0
0
0
0
0
0
0
0
0
0
3
3
2
2
0
0
0
0
0
0
0
0
0
0
0
0
0
0
0
0
0
0
0
0
3
3
2
2
0
0
0
0
0
0
0
0
0
0
0
0
0
0
0
0
0
0
0
0
3
3
2
2
0
0
0
0
0
0
0
0
0
0
0
0
0
0
0
0
0
0
0
0
3
3
2
2
3
3
2
2
3
3
2
2
3
3
2
2
3
3
2
2
3
3
2
2
3
3
2
2
3
3
2
2
3
3
2
2
3
3
2
2
3
3
2
2
3
3
2
2
3
3
2
2
3
3
2
2
3
3
2
2
3
3
2
2
3
3
2
2
3
3
2
2
3
3
2
2
3
3
2
2
3
3
2
2
3
3
2
2
3
3
2
2
3
3
2
2
3
3
2
2
3
3
2
2
3
3
2
2
3
3
2
2
3
3
2
2
3
3
2
2
3
3
2
2
2
2
2
2
2
2
2
2
2
2
2
2
2
2
2
2
2
2
2
2
2
2
2
2
3
3
2
2
2
2
2
2
2
2
2
2
2
2
2
2
2
2
2
2
2
2
2
2
2
2
2
2
3
3
3
3
3
3
3
3
3
3
3
3
3
3
3
3
3
3
3
3
3
3
3
3
3
3
2
2
3
3
3
3
3
3
3
3
3
3
3
3
3
3
3
3
3
3
3
3
3
3
3
3
3
3
2
2
</DataArray>
<DataArray NumberOfComponents='1' type='Float32' Name='Velocity' format='ascii'>
0.000000
0.000000
0.000000
0.000000
0.000000
0.000000
0.000000
0.000000
0.000000
0.000000
0.000000
0.000000
0.000000
0.000000
0.000000
0.000000
0.000000
0.000000
0.000000
0.000000
0.000000
0.000000
0.000000
0.000000
0.000000
0.000000
0.000000
0.000000
0.000000
0.000000
0.000000
0.000000
0.000000
0.000000
0.000000
0.000000
0.000000
0.000000
0.000000
0.000000
0.000000
0.000000
0.000000
0.000000
0.000000
0.000000
0.000000
0.000000
0.000000
0.000000
0.000000
0.000000
0.000000
0.000000
0.000000
0.000000
0.000000
0.000000
0.000000
0.000000
0.000000
0.000000
0.000000
0.000000
0.000000
0.000000
0.000000
0.000000
0.000000
0.000000
0.000000
0.000000
0.000000
0.000000
0.000000
0.000000
0.000000
0.000000
0.000000
0.000000
0.000000
0.000000
0.000000
0.000000
0.000000
0.000000
0.000000
0.000000
0.000000
0.000000
0.000000
0.000000
0.000000
0.000000
0.000000
0.000000
0.000000
0.000000
0.000000
0.000000
0.000000
0.000000
0.000000
0.000000
0.000000
0.000000
0.000000
0.000000
0.000000
0.000000
0.000000
0.000000
0.000000
0.000000
0.000000
0.000000
0.318924
0.298446
0.350682
0.190604
0.482198
0.110235
0.377461
0.289187
0.325416
0.315113
0.275357
0.137736
0.253210
0.041734
0.244249
0.111954
0.273741
0.209718
0.460191
0.270072
0.000000
0.000000
0.000000
0.000000
0.234865
0.936302
1.017406
0.887733
1.161677
1.182433
0.643848
1.701757
0.407107
0.423855
0.840235
0.897227
0.144102
0.543669
0.441674
0.320461
0.070877
0.615511
0.076985
0.150632
0.000000
0.000000
0.000000
0.000000
0.410641
0.561839
0.752799
0.542984
1.357128
1.194447
1.330974
0.911938
1.422211
0.573357
0.743774
0.855934
0.528139
0.269153
0.413322
0.401308
0.449747
0.569806
0.561642
0.419754
0.000000
0.000000
0.000000
0.000000
1.042096
0.747785
1.052211
0.725376
0.225564
1.104621
1.165504
0.537478
1.056550
1.028041
0.995359
0.729941
1.286004
1.457191
1.047480
0.776158
1.655576
1.522179
1.066919
0.529628
0.000000
0.000000
0.000000
0.000000
0.156920
1.002605
0.711466
0.040108
0.649574
1.157186
0.641172
0.377034
0.895314
1.159640
0.575863
1.357336
1.204871
0.977341
0.771598
1.486009
0.866908
0.727559
1.377786
0.996775
0.000000
0.000000
0.000000
0.000000
0.621002
0.260661
0.146175
0.697720
0.334301
0.413460
0.303153
0.319061
0.504719
0.773885
0.306554
0.470332
0.225684
0.303098
0.757011
0.840643
0.952857
1.140171
1.148540
0.904808
0.000000
0.000000
0.000000
0.000000
1.534146
0.349839
0.459235
0.507126
0.361491
0.386970
0.119485
0.611099
0.301358
0.378435
0.555697
0.303061
0.491074
0.194039
0.627560
0.292978
0.393154
0.666865
0.723531
1.314746
0.000000
0.000000
0.000000
0.000000
0.405270
0.617176
0.819542
0.167069
0.376560
0.312707
0.110660
0.186129
0.295910
1.059865
0.106036
0.467889
1.213106
0.711794
0.862280
0.415072
0.181113
0.820185
0.764807
0.727374
0.000000
0.000000
0.000000
0.000000
0.384972
0.822012
0.210879
1.326509
1.354063
1.178833
0.728556
0.153160
0.315860
0.623331
0.305973
0.798023
1.486307
1.376779
0.425830
0.549114
0.842174
0.792596
0.224430
0.405051
0.000000
0.000000
0.000000
0.000000
0.135470
0.403007
0.893888
0.675292
0.726876
0.598519
0.598704
0.582408
1.314381
0.754715
1.323762
1.021965
0.772411
0.822490
0.927346
0.511181
1.133291
0.604022
1.141099
0.330059
0.000000
0.000000
0.000000
0.000000
0.000000
0.000000
0.000000
0.000000
0.000000
0.000000
0.000000
0.000000
0.000000
0.000000
0.000000
0.000000
0.000000
0.000000
0.000000
0.000000
0.000000
0.000000
0.000000
0.000000
0.000000
0.000000
0.000000
0.000000
0.000000
0.000000
0.000000
0.000000
0.000000
0.000000
0.000000
0.000000
0.000000
0.000000
0.000000
0.000000
0.000000
0.000000
0.000000
0.000000
0.000000
0.000000
0.000000
0.000000
0.000000
0.000000
0.000000
0.000000
0.000000
0.000000
0.000000
0.000000
0.000000
0.000000
0.000000
0.000000
0.000000
0.000000
0.000000
0.000000
0.000000
0.000000
0.000000
0.000000
0.000000
0.000000
0.000000
0.000000
0.000000
0.000000
0.000000
0.000000
0.000000
0.000000
0.000000
0.000000
0.000000
0.000000
0.000000
0.000000
0.000000
0.000000
0.000000
0.000000
0.000000
0.000000
0.000000
0.000000
0.000000
0.000000
0.000000
0.000000
0.000000
0.000000
0.000000
0.000000
0.000000
0.000000
0.000000
0.000000
0.000000
0.000000
0.000000
0.000000
0.000000
0.000000
0.000000
0.000000
0.000000
0.000000
0.000000
0.000000
0.000000
0.000000
0.000000
0.000000
0.000000
0.000000
0.000000
0.000000
0.000000
0.000000
0.000000
0.000000
0.000000
0.000000
0.000000
0.000000
0.000000
0.000000
0.000000
0.000000
0.000000
0.000000
0.000000
0.000000
0.000000
0.000000
0.000000
0.000000
0.000000
0.000000
0.000000
0.000000
0.000000
0.000000
0.000000
0.000000
0.000000
0.000000
0.000000
0.000000
0.000000
0.000000
0.000000
0.000000
0.000000
0.000000
0.000000
0.000000
0.000000
0.000000
0.000000
0.000000
0.000000
0.000000
0.000000
0.000000
0.000000
0.000000
0.000000
0.000000
0.000000
0.000000
0.000000
0.000000
0.000000
0.000000
0.000000
0.000000
0.000000
0.000000
0.000000
0.000000
0.000000
0.000000
0.000000
0.000000
0.000000
0.000000
0.000000
0.000000
0.000000
0.000000
0.000000
0.000000
0.000000
0.000000
0.000000
0.000000
0.000000
0.000000
0.000000
0.000000
0.000000
0.000000
0.000000
0.000000
0.000000
0.000000
0.000000
0.000000
0.000000
0.000000
0.000000
0.000000
0.000000
0.000000
0.000000
0.000000
0.000000
0.000000
0.000000
0.000000
0.000000
0.000000
0.000000
0.000000
</DataArray>
<DataArray NumberOfComponents='1' type='Float32' Name='pressure' format='ascii'>
0.000000
0.000000
0.000000
0.000000
0.000000
0.000000
0.000000
0.000000
0.000000
0.000000
0.000000
0.000000
0.000000
0.000000
0.000000
0.000000
0.000000
0.000000
0.000000
0.000000
0.000000
0.000000
0.000000
0.000000
0.000000
0.000000
0.000000
0.000000
0.000000
0.000000
0.000000
0.000000
0.000000
0.000000
0.000000
0.000000
0.000000
0.000000
0.000000
0.000000
0.000000
0.000000
0.000000
0.000000
0.000000
0.000000
0.000000
0.000000
0.000000
0.000000
0.000000
0.000000
0.000000
0.000000
0.000000
0.000000
0.000000
0.000000
234.156403
0.000000
0.000000
142.112244
0.000000
0.000000
0.000000
0.000000
0.000000
0.000000
0.000000
0.000000
0.000000
0.000000
0.000000
0.000000
0.000000
0.000000
0.000000
0.000000
0.000000
0.000000
0.000000
0.000000
0.000000
0.000000
0.000000
0.000000
556.447205
0.000000
0.000000
0.000000
0.000000
0.000000
0.000000
0.000000
0.000000
0.000000
0.000000
0.000000
0.000000
0.000000
0.000000
0.000000
0.000000
0.000000
0.000000
0.000000
0.000000
0.000000
0.000000
0.000000
0.000000
0.000000
0.000000
0.000000
1521.462646
1271.201416
0.000000
0.000000
456.133118
175.812241
0.000000
149.554382
0.000000
0.000000
0.000000
0.000000
987.706787
332.666870
513.703918
455.413422
1397.295532
0.000000
997.553833
0.000000
0.000000
0.000000
0.000000
0.000000
2130.161865
1221.317505
608.822327
0.000000
87.176193
0.000000
0.000000
0.000000
0.000000
0.000000
0.000000
211.876526
0.000000
0.000000
377.977753
0.000000
0.000000
483.350067
0.000000
0.000000
0.000000
305.521271
0.000000
0.000000
1746.953979
0.000000
0.000000
0.000000
0.000000
0.000000
0.000000
0.000000
0.000000
0.000000
0.000000
1372.406494
438.454956
0.000000
0.000000
0.000000
0.000000
0.000000
123.726685
0.000000
0.000000
0.000000
0.000000
0.000000
1673.037231
1785.078369
1047.504639
675.972107
3697.162109
0.000000
0.000000
2041.834717
0.000000
0.000000
659.771606
1172.066040
0.000000
1713.134888
0.000000
0.000000
11792.268555
457.464203
232.274048
0.000000
0.000000
0.000000
0.000000
0.000000
1358.301636
2183.963623
1142.406128
0.000000
0.000000
597.309937
0.000000
1935.330444
0.000000
0.000000
0.000000
0.000000
535.188171
0.000000
0.000000
3373.171631
0.000000
1378.222656
0.000000
0.000000
0.000000
0.000000
0.000000
0.000000
350.089050
546.248169
0.000000
0.000000
0.000000
0.000000
0.000000
0.000000
0.000000
0.000000
0.000000
684.930603
611.209839
0.000000
274.293610
0.000000
0.000000
444.925568
370.909210
171.146454
1346.435425
852.807007
0.000000
0.000000
1241.801270
1216.704224
0.000000
0.000000
0.000000
0.000000
0.000000
0.000000
1596.135254
0.000000
0.000000
462.972321
0.000000
0.000000
0.000000
0.000000
0.000000
0.000000
0.000000
0.000000
0.000000
0.000000
0.000000
0.000000
608.273499
0.000000
0.000000
0.000000
0.000000
0.000000
0.000000
0.000000
0.000000
0.000000
0.000000
0.000000
0.000000
0.000000
0.000000
0.000000
0.000000
0.000000
0.000000
0.000000
0.000000
0.000000
0.000000
0.000000
1218.729004
2182.081299
0.000000
0.000000
0.000000
0.000000
0.000000
0.000000
0.000000
0.000000
0.000000
0.000000
0.000000
0.000000
0.000000
0.000000
0.000000
0.000000
0.000000
0.000000
0.000000
0.000000
0.000000
0.000000
523.201355
710.139832
0.000000
0.000000
0.000000
0.000000
0.000000
0.000000
0.000000
0.000000
0.000000
0.000000
0.000000
0.000000
0.000000
0.000000
0.000000
0.000000
0.000000
0.000000
0.000000
0.000000
0.000000
0.000000
0.000000
0.000000
0.000000
0.000000
751.318237
1894.237305
0.000000
0.000000
654.628540
0.000000
0.000000
0.000000
658.692200
0.000000
0.000000
0.000000
1116.625122
0.000000
0.000000
0.000000
972.034180
0.000000
0.000000
0.000000
0.000000
0.000000
0.000000
0.000000
0.000000
0.000000
0.000000
0.000000
0.000000
0.000000
0.000000
0.000000
303.143341
2075.043213
0.000000
0.000000
1170.580200
2434.203369
0.000000
0.000000
1863.536987
2435.832764
0.000000
0.000000
3571.556885
3358.285400
0.000000
0.000000
3566.045898
4200.372070
0.000000
0.000000
2130.709961
1749.177734
0.000000
0.000000
3501.183350
3539.357178
0.000000
0.000000
2588.413330
3124.482666
0.000000
0.000000
1800.925903
2066.593506
0.000000
0.000000
3247.563477
1842.065308
0.000000
0.000000
1224.751099
0.000000
0.000000
0.000000
1537.250000
1980.055176
0.000000
0.000000
0.000000
0.000000
0.000000
0.000000
564.970215
83.661530
0.000000
0.000000
0.000000
0.000000
0.000000
0.000000
0.000000
0.000000
0.000000
0.000000
664.606873
978.996033
0.000000
0.000000
0.000000
0.000000
0.000000
0.000000
98.517754
0.000000
0.000000
0.000000
1393.016357
1289.037109
0.000000
0.000000
933.105591
28.930279
0.000000
0.000000
105.995628
0.000000
0.000000
0.000000
0.000000
0.000000
0.000000
0.000000
0.000000
0.000000
0.000000
0.000000
0.000000
0.000000
0.000000
0.000000
0.000000
0.000000
0.000000
0.000000
0.000000
0.000000
0.000000
0.000000
0.000000
0.000000
0.000000
0.000000
0.000000
0.000000
0.000000
393.481628
0.000000
158.535873
923.720215
613.118469
760.149963
0.000000
0.000000
220.879944
1529.649048
0.000000
0.000000
0.000000
0.000000
0.000000
0.000000
0.000000
0.000000
0.000000
0.000000
0.000000
0.000000
0.000000
0.000000
0.000000
0.000000
0.000000
0.000000
0.000000
0.000000
0.000000
0.000000
0.000000
0.000000
0.000000
0.000000
0.000000
0.000000
0.000000
0.000000
0.000000
0.000000
0.000000
0.000000
0.000000
0.000000
0.000000
0.000000
0.000000
0.000000
0.000000
0.000000
0.000000
0.000000
0.000000
0.000000
0.000000
0.000000
0.000000
0.000000
0.000000
0.000000
0.000000
0.000000
0.000000
0.000000
0.000000
0.000000
0.000000
0.000000
0.000000
0.000000
0.000000
0.000000
0.000000
0.000000
0.000000
0.000000
0.000000
</DataArray>
</PointData>
<Cells>
<DataArray type='Int32' Name='connectivity' format='ascii'>
0
1
2
3
4
5
6
7
8
9
10
11
12
13
14
15
16
17
18
19
20
21
22
23
24
25
26
27
28
29
30
31
32
33
34
35
36
37
38
39
40
41
42
43
44
45
46
47
48
49
50
51
52
53
54
55
56
57
58
59
60
61
62
63
64
65
66
67
68
69
70
71
72
73
74
75
76
77
78
79
80
81
82
83
84
85
86
87
88
89
90
91
92
93
94
95
96
97
98
99
100
101
102
103
104
105
106
107
108
109
110
111
112
113
114
115
116
117
118
119
120
121
122
123
124
125
126
127
128
129
130
131
132
133
134
135
136
137
138
139
140
141
142
143
144
145
146
147
148
149
150
151
152
153
154
155
156
157
158
159
160
161
162
163
164
165
166
167
168
169
170
171
172
173
174
175
176
177
178
179
180
181
182
183
184
185
186
187
188
189
190
191
192
193
194
195
196
197
198
199
200
201
202
203
204
205
206
207
208
209
210
211
212
213
214
215
216
217
218
219
220
221
222
223
224
225
226
227
228
229
230
231
232
233
234
235
236
237
238
239
240
241
242
243
244
245
246
247
248
249
250
251
252
253
254
255
256
257
258
259
260
261
262
263
264
265
266
267
268
269
270
271
272
273
274
275
276
277
278
279
280
281
282
283
284
285
286
287
288
289
290
291
292
293
294
295
296
297
298
299
300
301
302
303
304
305
306
307
308
309
310
311
312
313
314
315
316
317
318
319
320
321
322
323
324
325
326
327
328
329
330
331
332
333
334
335
336
337
338
339
340
341
342
343
344
345
346
347
348
349
350
351
352
353
354
355
356
357
358
359
360
361
362
363
364
365
366
367
368