<?xml version='1.0' encoding='UTF-8'?>
<VTKFile xmlns='VTK' byte_order='LittleEndian' version='0.1' type='UnstructuredGrid'>
<UnstructuredGrid>
<Piece NumberOfCells='584' NumberOfPoints='584'>
<Points>
<DataArray NumberOfComponents='3' type='Float32' Name='Position' format='ascii'>
-0.075000 -0.075000 0.000000
-0.075000 -0.050000 0.000000
-0.075000 -0.025000 0.000000
-0.075000 0.000000 0.000000
-0.075000 0.025000 0.000000
-0.075000 0.050000 0.000000
-0.075000 0.075000 0.000000
-0.075000 0.100000 0.000000
-0.075000 0.125000 0.000000
-0.075000 0.150000 0.000000
-0.075000 0.175000 0.000000
-0.075000 0.200000 0.000000
-0.075000 0.225000 0.000000
-0.075000 0.250000 0.000000
-0.075000 0.275000 0.000000
-0.075000 0.300000 0.000000
-0.075000 0.325000 0.000000
-0.075000 0.350000 0.000000
-0.075000 0.375000 0.000000
-0.075000 0.400000 0.000000
-0.075000 0.425000 0.000000
-0.075000 0.450000 0.000000
-0.075000 0.475000 0.000000
-0.075000 0.500000 0.000000
-0.075000 0.525000 0.000000
-0.075000 0.550000 0.000000
-0.075000 0.575000 0.000000
-0.075000 0.600000 0.000000
-0.050000 -0.075000 0.000000
-0.050000 -0.050000 0.000000
-0.050000 -0.025000 0.000000
-0.050000 0.000000 0.000000
-0.050000 0.025000 0.000000
-0.050000 0.050000 0.000000
-0.050000 0.075000 0.000000
-0.050000 0.100000 0.000000
-0.050000 0.125000 0.000000
-0.050000 0.150000 0.000000
-0.050000 0.175000 0.000000
-0.050000 0.200000 0.000000
-0.050000 0.225000 0.000000
-0.050000 0.250000 0.000000
-0.050000 0.275000 0.000000
-0.050000 0.300000 0.000000
-0.050000 0.325000 0.000000
-0.050000 0.350000 0.000000
-0.050000 0.375000 0.000000
-0.050000 0.400000 0.000000
-0.050000 0.425000 0.000000
-0.050000 0.450000 0.000000
-0.050000 0.475000 0.000000
-0.050000 0.500000 0.000000
-0.050000 0.525000 0.000000
-0.050000 0.550000 0.000000
-0.050000 0.575000 0.000000
-0.050000 0.600000 0.000000
-0.025000 -0.075000 0.000000
-0.025000 -0.050000 0.000000
-0.025000 -0.025000 0.000000
-0.025000 0.000000 0.000000
-0.025000 0.025000 0.000000
-0.025000 0.050000 0.000000
-0.025000 0.075000 0.000000
-0.025000 0.100000 0.000000
-0.025000 0.125000 0.000000
-0.025000 0.150000 0.000000
-0.025000 0.175000 0.000000
-0.025000 0.200000 0.000000
-0.025000 0.225000 0.000000
-0.025000 0.250000 0.000000
-0.025000 0.275000 0.000000
-0.025000 0.300000 0.000000
-0.025000 0.325000 0.000000
-0.025000 0.350000 0.000000
-0.025000 0.375000 0.000000
-0.025000 0.400000 0.000000
-0.025000 0.425000 0.000000
-0.025000 0.450000 0.000000
-0.025000 0.475000 0.000000
-0.025000 0.500000 0.000000
-0.025000 0.525000 0.000000
-0.025000 0.550000 0.000000
-0.025000 0.575000 0.000000
-0.025000 0.600000 0.000000
0.000000 -0.075000 0.000000
0.000000 -0.050000 0.000000
0.000000 -0.025000 0.000000
0.000000 0.000000 0.000000
0.000000 0.025000 0.000000
0.000000 0.050000 0.000000
0.000000 0.075000 0.000000
0.000000 0.100000 0.000000
0.000000 0.125000 0.000000
0.000000 0.150000 0.000000
0.000000 0.175000 0.000000
0.000000 0.200000 0.000000
0.000000 0.225000 0.000000
0.000000 0.250000 0.000000
0.000000 0.275000 0.000000
0.000000 0.300000 0.000000
0.000000 0.325000 0.000000
0.000000 0.350000 0.000000
0.000000 0.375000 0.000000
0.000000 0.400000 0.000000
0.000000 0.425000 0.000000
0.000000 0.450000 0.000000
0.000000 0.475000 0.000000
0.000000 0.500000 0.000000
0.000000 0.525000 0.000000
0.000000 0.550000 0.000000
0.000000 0.575000 0.000000
0.000000 0.600000 0.000000
0.025000 -0.075000 0.000000
0.025000 -0.050000 0.000000
0.025000 -0.025000 0.000000
0.025000 0.000000 0.000000
0.025193 0.024617 0.000000
0.025174 0.048696 0.000000
0.025201 0.073118 0.000000
0.025122 0.097352 0.000000
0.025094 0.121768 0.000000
0.025078 0.146142 0.000000
0.025042 0.170593 0.000000
0.025045 0.195129 0.000000
0.025023 0.219684 0.000000
0.025032 0.244351 0.000000
0.025027 0.269020 0.000000
0.025029 0.293773 0.000000
0.025035 0.318530 0.000000
0.025043 0.343333 0.000000
0.025018 0.368184 0.000000
0.025015 0.393174 0.000000
0.025020 0.417926 0.000000
0.024950 0.442925 0.000000
0.024847 0.468011 0.000000
0.024970 0.492326 0.000000
0.050000 -0.075000 0.000000
0.050000 -0.050000 0.000000
0.050000 -0.025000 0.000000
0.050000 0.000000 0.000000
0.051364 0.024828 0.000000
0.051091 0.048591 0.000000
0.051172 0.073122 0.000000
0.051016 0.097189 0.000000
0.050987 0.121673 0.000000
0.050859 0.146015 0.000000
0.050785 0.170519 0.000000
0.050707 0.195049 0.000000
0.050624 0.219627 0.000000
0.050558 0.244314 0.000000
0.050489 0.268983 0.000000
0.050414 0.293741 0.000000
0.050335 0.318534 0.000000
0.050308 0.343312 0.000000
0.050250 0.368119 0.000000
0.050153 0.393148 0.000000
0.050102 0.417969 0.000000
0.050119 0.442807 0.000000
0.049971 0.467863 0.000000
0.049988 0.492389 0.000000
0.075000 -0.075000 0.000000
0.075000 -0.050000 0.000000
0.075000 -0.025000 0.000000
0.075000 0.000000 0.000000
0.077124 0.024641 0.000000
0.077044 0.048532 0.000000
0.076897 0.073049 0.000000
0.076694 0.097154 0.000000
0.076567 0.121635 0.000000
0.076358 0.145923 0.000000
0.076194 0.170468 0.000000
0.076023 0.194966 0.000000
0.075864 0.219550 0.000000
0.075728 0.244231 0.000000
0.075587 0.268895 0.000000
0.075478 0.293641 0.000000
0.075376 0.318455 0.000000
0.075302 0.343295 0.000000
0.075269 0.368063 0.000000
0.075192 0.393040 0.000000
0.075102 0.417925 0.000000
0.075041 0.442806 0.000000
0.075046 0.467868 0.000000
0.075010 0.492398 0.000000
0.100000 -0.075000 0.000000
0.100000 -0.050000 0.000000
0.100000 -0.025000 0.000000
0.100000 0.000000 0.000000
0.102839 0.024790 0.000000
0.102555 0.048411 0.000000
0.102521 0.072813 0.000000
0.102308 0.096864 0.000000
0.102068 0.121353 0.000000
0.101874 0.145640 0.000000
0.101667 0.170205 0.000000
0.101449 0.194721 0.000000
0.101278 0.219347 0.000000
0.101103 0.244044 0.000000
0.100954 0.268740 0.000000
0.100826 0.293535 0.000000
0.100725 0.318351 0.000000
0.100584 0.343198 0.000000
0.100451 0.367996 0.000000
0.100370 0.392969 0.000000
0.100284 0.417826 0.000000
0.100181 0.442735 0.000000
0.100104 0.467796 0.000000
0.100017 0.492337 0.000000
0.125000 -0.075000 0.000000
0.125000 -0.050000 0.000000
0.125000 -0.025000 0.000000
0.125000 0.000000 0.000000
0.129387 0.024384 0.000000
0.128962 0.048229 0.000000
0.128655 0.072793 0.000000
0.128314 0.096660 0.000000
0.128012 0.121186 0.000000
0.127610 0.145487 0.000000
0.127302 0.170017 0.000000
0.126982 0.194546 0.000000
0.126699 0.219186 0.000000
0.126444 0.243880 0.000000
0.126211 0.268593 0.000000
0.126010 0.293400 0.000000
0.125821 0.318202 0.000000
0.125633 0.343015 0.000000
0.125483 0.367863 0.000000
0.125382 0.392876 0.000000
0.125278 0.417725 0.000000
0.125180 0.442652 0.000000
0.125113 0.467715 0.000000
0.125019 0.492289 0.000000
0.150000 -0.075000 0.000000
0.150000 -0.050000 0.000000
0.150000 -0.025000 0.000000
0.150000 0.000000 0.000000
0.154523 0.024681 0.000000
0.154313 0.047834 0.000000
0.154128 0.072230 0.000000
0.153636 0.096215 0.000000
0.153345 0.120661 0.000000
0.152893 0.144935 0.000000
0.152533 0.169591 0.000000
0.152189 0.194123 0.000000
0.151874 0.218826 0.000000
0.151600 0.243567 0.000000
0.151354 0.268320 0.000000
0.151147 0.293168 0.000000
0.150948 0.317991 0.000000
0.150792 0.342866 0.000000
0.150675 0.367762 0.000000
0.150565 0.392771 0.000000
0.150417 0.417602 0.000000
0.150292 0.442573 0.000000
0.150193 0.467609 0.000000
0.150033 0.492200 0.000000
0.175000 -0.075000 0.000000
0.175000 -0.050000 0.000000
0.175000 -0.025000 0.000000
0.175000 0.000000 0.000000
0.182370 0.024050 0.000000
0.181103 0.048002 0.000000
0.180777 0.072070 0.000000
0.180027 0.095844 0.000000
0.179405 0.120418 0.000000
0.178802 0.144611 0.000000
0.178276 0.169293 0.000000
0.177785 0.193847 0.000000
0.177377 0.218570 0.000000
0.176999 0.243334 0.000000
0.176686 0.268119 0.000000
0.176398 0.292973 0.000000
0.176153 0.317820 0.000000
0.175942 0.342716 0.000000
0.175755 0.367623 0.000000
0.175567 0.392601 0.000000
0.175361 0.417432 0.000000
0.175241 0.442471 0.000000
0.175188 0.467457 0.000000
0.175034 0.492081 0.000000
0.200000 -0.075000 0.000000
0.200000 -0.050000 0.000000
0.200000 -0.025000 0.000000
0.200000 0.000000 0.000000
0.207105 0.024340 0.000000
0.206905 0.046740 0.000000
0.205869 0.071136 0.000000
0.205311 0.094848 0.000000
0.204498 0.119448 0.000000
0.203864 0.143813 0.000000
0.203273 0.168584 0.000000
0.202768 0.193246 0.000000
0.202344 0.218060 0.000000
0.201972 0.242896 0.000000
0.201658 0.267745 0.000000
0.201389 0.292653 0.000000
0.201156 0.317552 0.000000
0.200956 0.342487 0.000000
0.200755 0.367415 0.000000
0.200593 0.392396 0.000000
0.200465 0.417288 0.000000
0.200399 0.442406 0.000000
0.200142 0.467347 0.000000
0.200016 0.491992 0.000000
0.225000 -0.075000 0.000000
0.225000 -0.050000 0.000000
0.225000 -0.025000 0.000000
0.225000 0.000000 0.000000
0.237096 0.024396 0.000000
0.235025 0.047105 0.000000
0.233176 0.070589 0.000000
0.231881 0.094488 0.000000
0.230699 0.118913 0.000000
0.229821 0.143396 0.000000
0.229046 0.168162 0.000000
0.228410 0.192911 0.000000
0.227888 0.217754 0.000000
0.227424 0.242629 0.000000
0.227042 0.267520 0.000000
0.226706 0.292448 0.000000
0.226410 0.317374 0.000000
0.226154 0.342301 0.000000
0.225915 0.367243 0.000000
0.225718 0.392265 0.000000
0.225525 0.417237 0.000000
0.225386 0.442145 0.000000
0.225074 0.467043 0.000000
0.225001 0.491965 0.000000
0.250000 -0.075000 0.000000
0.250000 -0.050000 0.000000
0.250000 -0.025000 0.000000
0.250000 0.000000 0.000000
0.264980 0.021604 0.000000
0.260868 0.043262 0.000000
0.258277 0.067697 0.000000
0.256531 0.092462 0.000000
0.255161 0.117343 0.000000
0.254181 0.142235 0.000000
0.253395 0.167189 0.000000
0.252755 0.192140 0.000000
0.252250 0.217108 0.000000
0.251814 0.242085 0.000000
0.251462 0.267064 0.000000
0.251152 0.292051 0.000000
0.250894 0.317037 0.000000
0.250674 0.342022 0.000000
0.250507 0.367011 0.000000
0.250348 0.392016 0.000000
0.250167 0.417014 0.000000
0.250040 0.441987 0.000000
0.250002 0.466966 0.000000
0.250000 0.491964 0.000000
0.275000 -0.075000 0.000000
0.275000 -0.050000 0.000000
0.275000 -0.025000 0.000000
0.275000 0.000000 0.000000
0.300000 -0.075000 0.000000
0.300000 -0.050000 0.000000
0.300000 -0.025000 0.000000
0.300000 0.000000 0.000000
0.325000 -0.075000 0.000000
0.325000 -0.050000 0.000000
0.325000 -0.025000 0.000000
0.325000 0.000000 0.000000
0.350000 -0.075000 0.000000
0.350000 -0.050000 0.000000
0.350000 -0.025000 0.000000
0.350000 0.000000 0.000000
0.375000 -0.075000 0.000000
0.375000 -0.050000 0.000000
0.375000 -0.025000 0.000000
0.375000 0.000000 0.000000
0.400000 -0.075000 0.000000
0.400000 -0.050000 0.000000
0.400000 -0.025000 0.000000
0.400000 0.000000 0.000000
0.425000 -0.075000 0.000000
0.425000 -0.050000 0.000000
0.425000 -0.025000 0.000000
0.425000 0.000000 0.000000
0.450000 -0.075000 0.000000
0.450000 -0.050000 0.000000
0.450000 -0.025000 0.000000
0.450000 0.000000 0.000000
0.475000 -0.075000 0.000000
0.475000 -0.050000 0.000000
0.475000 -0.025000 0.000000
0.475000 0.000000 0.000000
0.500000 -0.075000 0.000000
0.500000 -0.050000 0.000000
0.500000 -0.025000 0.000000
0.500000 0.000000 0.000000
0.525000 -0.075000 0.000000
0.525000 -0.050000 0.000000
0.525000 -0.025000 0.000000
0.525000 0.000000 0.000000
0.550000 -0.075000 0.000000
0.550000 -0.050000 0.000000
0.550000 -0.025000 0.000000
0.550000 0.000000 0.000000
0.575000 -0.075000 0.000000
0.575000 -0.050000 0.000000
0.575000 -0.025000 0.000000
0.575000 0.000000 0.000000
0.600000 -0.075000 0.000000
0.600000 -0.050000 0.000000
0.600000 -0.025000 0.000000
0.600000 0.000000 0.000000
0.625000 -0.075000 0.000000
0.625000 -0.050000 0.000000
0.625000 -0.025000 0.000000
0.625000 0.000000 0.000000
0.650000 -0.075000 0.000000
0.650000 -0.050000 0.000000
0.650000 -0.025000 0.000000
0.650000 0.000000 0.000000
0.675000 -0.075000 0.000000
0.675000 -0.050000 0.000000
0.675000 -0.025000 0.000000
0.675000 0.000000 0.000000
0.700000 -0.075000 0.000000
0.700000 -0.050000 0.000000
0.700000 -0.025000 0.000000
0.700000 0.000000 0.000000
0.725000 -0.075000 0.000000
0.725000 -0.050000 0.000000
0.725000 -0.025000 0.000000
0.725000 0.000000 0.000000
0.750000 -0.075000 0.000000
0.750000 -0.050000 0.000000
0.750000 -0.025000 0.000000
0.750000 0.000000 0.000000
0.775000 -0.075000 0.000000
0.775000 -0.050000 0.000000
0.775000 -0.025000 0.000000
0.775000 0.000000 0.000000
0.800000 -0.075000 0.000000
0.800000 -0.050000 0.000000
0.800000 -0.025000 0.000000
0.800000 0.000000 0.000000
0.825000 -0.075000 0.000000
0.825000 -0.050000 0.000000
0.825000 -0.025000 0.000000
0.825000 0.000000 0.000000
0.850000 -0.075000 0.000000
0.850000 -0.050000 0.000000
0.850000 -0.025000 0.000000
0.850000 0.000000 0.000000
0.875000 -0.075000 0.000000
0.875000 -0.050000 0.000000
0.875000 -0.025000 0.000000
0.875000 0.000000 0.000000
0.900000 -0.075000 0.000000
0.900000 -0.050000 0.000000
0.900000 -0.025000 0.000000
0.900000 0.000000 0.000000
0.925000 -0.075000 0.000000
0.925000 -0.050000 0.000000
0.925000 -0.025000 0.000000
0.925000 0.000000 0.000000
0.950000 -0.075000 0.000000
0.950000 -0.050000 0.000000
0.950000 -0.025000 0.000000
0.950000 0.000000 0.000000
0.975000 -0.075000 0.000000
0.975000 -0.050000 0.000000
0.975000 -0.025000 0.000000
0.975000 0.000000 0.000000
1.000000 -0.075000 0.000000
1.000000 -0.050000 0.000000
1.000000 -0.025000 0.000000
1.000000 0.000000 0.000000
1.025000 -0.075000 0.000000
1.025000 -0.050000 0.000000
1.025000 -0.025000 0.000000
1.025000 0.000000 0.000000
1.025000 0.025000 0.000000
1.025000 0.050000 0.000000
1.025000 0.075000 0.000000
1.025000 0.100000 0.000000
1.025000 0.125000 0.000000
1.025000 0.150000 0.000000
1.025000 0.175000 0.000000
1.025000 0.200000 0.000000
1.025000 0.225000 0.000000
1.025000 0.250000 0.000000
1.025000 0.275000 0.000000
1.025000 0.300000 0.000000
1.025000 0.325000 0.000000
1.025000 0.350000 0.000000
1.025000 0.375000 0.000000
1.025000 0.400000 0.000000
1.025000 0.425000 0.000000
1.025000 0.450000 0.000000
1.025000 0.475000 0.000000
1.025000 0.500000 0.000000
1.025000 0.525000 0.000000
1.025000 0.550000 0.000000
1.025000 0.575000 0.000000
1.025000 0.600000 0.000000
1.050000 -0.075000 0.000000
1.050000 -0.050000 0.000000
1.050000 -0.025000 0.000000
1.050000 0.000000 0.000000
1.050000 0.025000 0.000000
1.050000 0.050000 0.000000
1.050000 0.075000 0.000000
1.050000 0.100000 0.000000
1.050000 0.125000 0.000000
1.050000 0.150000 0.000000
1.050000 0.175000 0.000000
1.050000 0.200000 0.000000
1.050000 0.225000 0.000000
1.050000 0.250000 0.000000
1.050000 0.275000 0.000000
1.050000 0.300000 0.000000
1.050000 0.325000 0.000000
1.050000 0.350000 0.000000
1.050000 0.375000 0.000000
1.050000 0.400000 0.000000
1.050000 0.425000 0.000000
1.050000 0.450000 0.000000
1.050000 0.475000 0.000000
1.050000 0.500000 0.000000
1.050000 0.525000 0.000000
1.050000 0.550000 0.000000
1.050000 0.575000 0.000000
1.050000 0.600000 0.000000
1.075000 -0.075000 0.000000
1.075000 -0.050000 0.000000
1.075000 -0.025000 0.000000
1.075000 0.000000 0.000000
1.075000 0.025000 0.000000
1.075000 0.050000 0.000000
1.075000 0.075000 0.000000
1.075000 0.100000 0.000000
1.075000 0.125000 0.000000
1.075000 0.150000 0.000000
1.075000 0.175000 0.000000
1.075000 0.200000 0.000000
1.075000 0.225000 0.000000
1.075000 0.250000 0.000000
1.075000 0.275000 0.000000
1.075000 0.300000 0.000000
1.075000 0.325000 0.000000
1.075000 0.350000 0.000000
1.075000 0.375000 0.000000
1.075000 0.400000 0.000000
1.075000 0.425000 0.000000
1.075000 0.450000 0.000000
1.075000 0.475000 0.000000
1.075000 0.500000 0.000000
1.075000 0.525000 0.000000
1.075000 0.550000 0.000000
1.075000 0.575000 0.000000
1.075000 0.600000 0.000000
1.100000 -0.075000 0.000000
1.100000 -0.050000 0.000000
1.100000 -0.025000 0.000000
1.100000 0.000000 0.000000
1.100000 0.025000 0.000000
1.100000 0.050000 0.000000
1.100000 0.075000 0.000000
1.100000 0.100000 0.000000
1.100000 0.125000 0.000000
1.100000 0.150000 0.000000
1.100000 0.175000 0.000000
1.100000 0.200000 0.000000
1.100000 0.225000 0.000000
1.100000 0.250000 0.000000
1.100000 0.275000 0.000000
1.100000 0.300000 0.000000
1.100000 0.325000 0.000000
1.100000 0.350000 0.000000
1.100000 0.375000 0.000000
1.100000 0.400000 0.000000
1.100000 0.425000 0.000000
1.100000 0.450000 0.000000
1.100000 0.475000 0.000000
1.100000 0.500000 0.000000
1.100000 0.525000 0.000000
1.100000 0.550000 0.000000
1.100000 0.575000 0.000000
1.100000 0.600000 0.000000
</DataArray>
</Points>
<PointData>
<DataArray NumberOfComponents='1' type='Int32' Name='ParticleType' format='ascii'>
3
3
3
3
3
3
3
3
3
3
3
3
3
3
3
3
3
3
3
3
3
3
3
3
3
3
2
2
3
3
3
3
3
3
3
3
3
3
3
3
3
3
3
3
3
3
3
3
3
3
3
3
3
3
2
2
3
3
2
2
2
2
2
2
2
2
2
2
2
2
2
2
2
2
2
2
2
2
2
2
2
2
2
2
3
3
2
2
2
2
2
2
2
2
2
2
2
2
2
2
2
2
2
2
2
2
2
2
2
2
2
2
3
3
2
2
0
0
0
0
0
0
0
0
0
0
0
0
0
0
0
0
0
0
0
0
3
3
2
2
0
0
0
0
0
0
0
0
0
0
0
0
0
0
0
0
0
0
0
0
3
3
2
2
0
0
0
0
0
0
0
0
0
0
0
0
0
0
0
0
0
0
0
0
3
3
2
2
0
0
0
0
0
0
0
0
0
0
0
0
0
0
0
0
0
0
0
0
3
3
2
2
0
0
0
0
0
0
0
0
0
0
0
0
0
0
0
0
0
0
0
0
3
3
2
2
0
0
0
0
0
0
0
0
0
0
0
0
0
0
0
0
0
0
0
0
3
3
2
2
0
0
0
0
0
0
0
0
0
0
0
0
0
0
0
0
0
0
0
0
3
3
2
2
0
0
0
0
0
0
0
0
0
0
0
0
0
0
0
0
0
0
0
0
3
3
2
2
0
0
0
0
0
0
0
0
0
0
0
0
0
0
0
0
0
0
0
0
3
3
2
2
0
0
0
0
0
0
0
0
0
0
0
0
0
0
0
0
0
0
0
0
3
3
2
2
3
3
2
2
3
3
2
2
3
3
2
2
3
3
2
2
3
3
2
2
3
3
2
2
3
3
2
2
3
3
2
2
3
3
2
2
3
3
2
2
3
3
2
2
3
3
2
2
3
3
2
2
3
3
2
2
3
3
2
2
3
3
2
2
3
3
2
2
3
3
2
2
3
3
2
2
3
3
2
2
3
3
2
2
3
3
2
2
3
3
2
2
3
3
2
2
3
3
2
2
3
3
2
2
3
3
2
2
3
3
2
2
3
3
2
2
3
3
2
2
2
2
2
2
2
2
2
2
2
2
2
2
2
2
2
2
2
2
2
2
2
2
2
2
3
3
2
2
2
2
2
2
2
2
2
2
2
2
2
2
2
2
2
2
2
2
2
2
2
2
2
2
3
3
3
3
3
3
3
3
3
3
3
3
3
3
3
3
3
3
3
3
3
3
3
3
3
3
2
2
3
3
3
3
3
3
3
3
3
3
3
3
3
3
3
3
3
3
3
3
3
3
3
3
3
3
2
2
</DataArray>
<DataArray NumberOfComponents='1' type='Float32' Name='Velocity' format='ascii'>
0.000000
0.000000
0.000000
0.000000
0.000000
0.000000
0.000000
0.000000
0.000000
0.000000
0.000000
0.000000
0.000000
0.000000
0.000000
0.000000
0.000000
0.000000
0.000000
0.000000
0.000000
0.000000
0.000000
0.000000
0.000000
0.000000
0.000000
0.000000
0.000000
0.000000
0.000000
0.000000
0.000000
0.000000
0.000000
0.000000
0.000000
0.000000
0.000000
0.000000
0.000000
0.000000
0.000000
0.000000
0.000000
0.000000
0.000000
0.000000
0.000000
0.000000
0.000000
0.000000
0.000000
0.000000
0.000000
0.000000
0.000000
0.000000
0.000000
0.000000
0.000000
0.000000
0.000000
0.000000
0.000000
0.000000
0.000000
0.000000
0.000000
0.000000
0.000000
0.000000
0.000000
0.000000
0.000000
0.000000
0.000000
0.000000
0.000000
0.000000
0.000000
0.000000
0.000000
0.000000
0.000000
0.000000
0.000000
0.000000
0.000000
0.000000
0.000000
0.000000
0.000000
0.000000
0.000000
0.000000
0.000000
0.000000
0.000000
0.000000
0.000000
0.000000
0.000000
0.000000
0.000000
0.000000
0.000000
0.000000
0.000000
0.000000
0.000000
0.000000
0.000000
0.000000
0.000000
0.000000
0.022638
0.066540
0.083779
0.127498
0.148936
0.190741
0.211769
0.236237
0.252564
0.265312
0.280526
0.294289
0.309679
0.325449
0.335593
0.317834
0.335522
0.351847
0.312085
0.347830
0.000000
0.000000
0.000000
0.000000
0.056671
0.073216
0.098636
0.145457
0.160434
0.200286
0.216569
0.244218
0.257109
0.270958
0.282912
0.297474
0.307174
0.317630
0.343070
0.328817
0.325849
0.356957
0.333161
0.346101
0.000000
0.000000
0.000000
0.000000
0.119307
0.128480
0.128489
0.160354
0.179519
0.208210
0.220017
0.249432
0.259612
0.275755
0.286028
0.305240
0.319787
0.311773
0.336477
0.341707
0.330484
0.350615
0.333061
0.349615
0.000000
0.000000
0.000000
0.000000
0.128410
0.143016
0.166086
0.184294
0.195823
0.232534
0.240106
0.266515
0.275682
0.291860
0.303402
0.317563
0.325422
0.319055
0.339548
0.342201
0.338042
0.357838
0.339812
0.355523
0.000000
0.000000
0.000000
0.000000
0.226696
0.192044
0.198099
0.230937
0.223740
0.248901
0.260054
0.280151
0.286413
0.301617
0.312373
0.319716
0.321413
0.329312
0.353381
0.346708
0.342750
0.361831
0.343142
0.357062
0.000000
0.000000
0.000000
0.000000
0.230997
0.249858
0.239556
0.257593
0.272778
0.284594
0.288523
0.310949
0.309891
0.322869
0.330977
0.334962
0.340245
0.351296
0.364673
0.348650
0.348765
0.367224
0.348557
0.361830
0.000000
0.000000
0.000000
0.000000
0.349722
0.283048
0.317058
0.302412
0.301792
0.316360
0.309638
0.330365
0.325652
0.336616
0.341594
0.343595
0.349486
0.355375
0.363441
0.350029
0.360485
0.376706
0.357992
0.371579
0.000000
0.000000
0.000000
0.000000
0.451437
0.382233
0.346912
0.377296
0.354289
0.364896
0.350213
0.364199
0.354981
0.361432
0.363656
0.363497
0.366147
0.367728
0.374363
0.369419
0.380217
0.369164
0.357184
0.385413
0.000000
0.000000
0.000000
0.000000
0.497790
0.505167
0.423554
0.417971
0.396972
0.395864
0.378749
0.384495
0.376284
0.376444
0.376648
0.375264
0.372669
0.375384
0.385016
0.380731
0.371238
0.372040
0.381043
0.391325
0.000000
0.000000
0.000000
0.000000
0.887284
0.705071
0.599597
0.531788
0.480331
0.455926
0.431188
0.420326
0.410056
0.403519
0.399226
0.395726
0.392630
0.391187
0.392566
0.391432
0.387974
0.388187
0.391067
0.392000
0.000000
0.000000
0.000000
0.000000
0.000000
0.000000
0.000000
0.000000
0.000000
0.000000
0.000000
0.000000
0.000000
0.000000
0.000000
0.000000
0.000000
0.000000
0.000000
0.000000
0.000000
0.000000
0.000000
0.000000
0.000000
0.000000
0.000000
0.000000
0.000000
0.000000
0.000000
0.000000
0.000000
0.000000
0.000000
0.000000
0.000000
0.000000
0.000000
0.000000
0.000000
0.000000
0.000000
0.000000
0.000000
0.000000
0.000000
0.000000
0.000000
0.000000
0.000000
0.000000
0.000000
0.000000
0.000000
0.000000
0.000000
0.000000
0.000000
0.000000
0.000000
0.000000
0.000000
0.000000
0.000000
0.000000
0.000000
0.000000
0.000000
0.000000
0.000000
0.000000
0.000000
0.000000
0.000000
0.000000
0.000000
0.000000
0.000000
0.000000
0.000000
0.000000
0.000000
0.000000
0.000000
0.000000
0.000000
0.000000
0.000000
0.000000
0.000000
0.000000
0.000000
0.000000
0.000000
0.000000
0.000000
0.000000
0.000000
0.000000
0.000000
0.000000
0.000000
0.000000
0.000000
0.000000
0.000000
0.000000
0.000000
0.000000
0.000000
0.000000
0.000000
0.000000
0.000000
0.000000
0.000000
0.000000
0.000000
0.000000
0.000000
0.000000
0.000000
0.000000
0.000000
0.000000
0.000000
0.000000
0.000000
0.000000
0.000000
0.000000
0.000000
0.000000
0.000000
0.000000
0.000000
0.000000
0.000000
0.000000
0.000000
0.000000
0.000000
0.000000
0.000000
0.000000
0.000000
0.000000
0.000000
0.000000
0.000000
0.000000
0.000000
0.000000
0.000000
0.000000
0.000000
0.000000
0.000000
0.000000
0.000000
0.000000
0.000000
0.000000
0.000000
0.000000
0.000000
0.000000
0.000000
0.000000
0.000000
0.000000
0.000000
0.000000
0.000000
0.000000
0.000000
0.000000
0.000000
0.000000
0.000000
0.000000
0.000000
0.000000
0.000000
0.000000
0.000000
0.000000
0.000000
0.000000
0.000000
0.000000
0.000000
0.000000
0.000000
0.000000
0.000000
0.000000
0.000000
0.000000
0.000000
0.000000
0.000000
0.000000
0.000000
0.000000
0.000000
0.000000
0.000000
0.000000
0.000000
0.000000
0.000000
0.000000
0.000000
0.000000
0.000000
0.000000
0.000000
0.000000
0.000000
0.000000
0.000000
0.000000
0.000000
0.000000
0.000000
0.000000
0.000000
0.000000
0.000000
0.000000
</DataArray>
<DataArray NumberOfComponents='1' type='Float32' Name='pressure' format='ascii'>
0.000000
0.000000
0.000000
0.000000
0.000000
0.000000
0.000000
0.000000
0.000000
0.000000
0.000000
0.000000
0.000000
0.000000
0.000000
0.000000
0.000000
0.000000
0.000000
0.000000
0.000000
0.000000
0.000000
0.000000
0.000000
0.000000
0.000000
0.000000
0.000000
0.000000
0.000000
0.000000
0.000000
0.000000
0.000000
0.000000
0.000000
0.000000
0.000000
0.000000
0.000000
0.000000
0.000000
0.000000
0.000000
0.000000
0.000000
0.000000
0.000000
0.000000
0.000000
0.000000
0.000000
0.000000
0.000000
0.000000
0.000000
0.000000
2082.960449
1984.924805
1749.001221
1540.037964
1327.284912
1179.357422
1043.087524
902.948364
745.801941
545.733826
326.961029
91.182083
0.000000
0.000000
0.000000
0.000000
0.000000
0.000000
0.000000
0.000000
0.000000
0.000000
0.000000
0.000000
0.000000
0.000000
0.000000
0.000000
2163.710205
2132.148926
1770.065186
1594.459961
1313.361938
1201.140381
1133.699585
1076.485596
947.401794
768.988098
551.688354
317.003326
95.138313
0.000000
0.000000
0.000000
0.000000
0.000000
0.000000
0.000000
0.000000
0.000000
0.000000
0.000000
0.000000
0.000000
0.000000
0.000000
2377.155273
2441.118652
2063.111572
2033.246460
1717.381226
1595.803101
1312.418945
1180.150391
994.127319
816.771240
584.629456
360.214935
183.278625
17.321815
0.000000
0.000000
0.000000
0.000000
0.000000
0.000000
0.000000
0.000000
0.000000
0.000000
2349.981689
2268.273193
1698.552734
1607.330566
1288.189941
1244.223633
950.554077
894.436218
693.978333
612.839783
417.150208
309.052765
226.261475
76.697762
39.195900
0.000000
0.000000
0.000000
0.000000
0.000000
0.000000
0.000000
0.000000
0.000000
2408.821045
2456.555664
2013.638794
2007.272461
1599.836670
1537.809448
1298.975342
1199.921265
936.159363
875.233826
642.197144
531.049438
407.626892
162.119873
67.152336
156.447174
0.000000
0.000000
0.000000
0.000000
0.000000
0.000000
0.000000
0.000000
2325.447510
2209.987793
1618.899292
1613.231689
1318.181274
1191.518799
865.651001
828.655823
593.663879
526.730469
333.263336
252.936615
139.005356
0.000000
10.116529
115.881851
0.000000
0.000000
0.000000
0.000000
0.000000
0.000000
0.000000
0.000000
2362.982422
2436.079590
2113.592529
1777.060425
1345.720947
1431.917603
1006.930969
955.549316
763.370483
685.149780
505.291199
449.598206
339.034821
277.837372
311.259033
197.104111
0.000000
0.000000
39.331680
0.000000
0.000000
0.000000
0.000000
0.000000
2133.958252
2131.328125
1534.086548
1494.340942
1060.172607
935.906555
745.637817
672.763977
454.753876
465.879059
295.809845
263.868073
181.778076
135.629089
116.390121
0.000000
0.000000
0.000000
122.410637
0.000000
0.000000
0.000000
0.000000
0.000000
1974.250000
1944.253784
1868.395142
1307.195679
1186.843872
1068.082520
797.646667
759.350098
516.781921
544.086609
360.687683
325.044830
248.482162
193.224289
146.434418
63.292221
31.345671
193.201920
87.166588
0.000000
71.031265
0.000000
0.000000
0.000000
1664.333374
1801.968872
919.993591
889.518372
456.620300
571.217834
391.473328
385.374390
212.644485
267.422485
138.862350
131.632736
89.780418
63.272835
62.453075
34.299423
0.000000
8.864894
0.000000
0.000000
80.315956
0.000000
0.000000
0.000000
925.624023
57.301140
450.493805
1092.918945
645.002869
597.494446
489.689850
434.839111
286.432678
304.144257
211.634918
189.740265
155.032730
144.151505
158.388107
93.426033
0.000000
0.000000
35.655979
97.913895
0.000000
0.000000
0.000000
0.000000
1747.919678
1710.318115
0.000000
0.000000
0.000000
0.000000
0.000000
0.000000
0.000000
0.000000
0.000000
0.000000
0.000000
0.000000
0.000000
0.000000
0.000000
0.000000
0.000000
0.000000
0.000000
0.000000
0.000000
0.000000
1265.281982
0.000000
0.000000
0.000000
0.000000
0.000000
0.000000
0.000000
0.000000
0.000000
0.000000
0.000000
0.000000
0.000000
0.000000
0.000000
0.000000
0.000000
0.000000
0.000000
0.000000
0.000000
0.000000
0.000000
0.000000
0.000000
0.000000
0.000000
0.000000
0.000000
0.000000
0.000000
0.000000
0.000000
0.000000
0.000000
0.000000
0.000000
0.000000
0.000000
0.000000
0.000000
0.000000
0.000000
0.000000
0.000000
0.000000
0.000000
0.000000
0.000000
0.000000
0.000000
0.000000
0.000000
0.000000
0.000000
0.000000
0.000000
0.000000
0.000000
0.000000
0.000000
0.000000
0.000000
0.000000
0.000000
0.000000
0.000000
0.000000
0.000000
0.000000
0.000000
0.000000
0.000000
0.000000
0.000000
0.000000
0.000000
0.000000
0.000000
0.000000
0.000000
0.000000
0.000000
0.000000
0.000000
0.000000
0.000000
0.000000
0.000000
0.000000
0.000000
0.000000
0.000000
0.000000
0.000000
0.000000
0.000000
0.000000
0.000000
0.000000
0.000000
0.000000
0.000000
0.000000
0.000000
0.000000
0.000000
0.000000
0.000000
0.000000
0.000000
0.000000
0.000000
0.000000
0.000000
0.000000
0.000000
0.000000
0.000000
0.000000
0.000000
0.000000
0.000000
0.000000
0.000000
0.000000
0.000000
0.000000
0.000000
0.000000
0.000000
0.000000
0.000000
0.000000
0.000000
0.000000
0.000000
0.000000
0.000000
0.000000
0.000000
0.000000
0.000000
0.000000
0.000000
0.000000
0.000000
0.000000
0.000000
0.000000
0.000000
0.000000
0.000000
0.000000
0.000000
0.000000
0.000000
0.000000
0.000000
0.000000
0.000000
0.000000
0.000000
0.000000
0.000000
0.000000
0.000000
0.000000
0.000000
0.000000
0.000000
0.000000
0.000000
0.000000
0.000000
0.000000
0.000000
0.000000
0.000000
0.000000
0.000000
0.000000
0.000000
0.000000
0.000000
0.000000
0.000000
0.000000
0.000000
0.000000
0.000000
0.000000
0.000000
0.000000
0.000000
0.000000
0.000000
0.000000
0.000000
0.000000
0.000000
0.000000
0.000000
0.000000
0.000000
0.000000
0.000000
0.000000
0.000000
0.000000
0.000000
0.000000
0.000000
0.000000
0.000000
0.000000
0.000000
0.000000
0.000000
0.000000
0.000000
0.000000
0.000000
0.000000
0.000000
0.000000
0.000000
0.000000
0.000000
</DataArray>
</PointData>
<Cells>
<DataArray type='Int32' Name='connectivity' format='ascii'>
0
1
2
3
4
5
6
7
8
9
10
11
12
13
14
15
16
17
18
19
20
21
22
23
24
25
26
27
28
29
30
31
32
33
34
35
36
37
38
39
40
41
42
43
44
45
46
47
48
49
50
51
52
53
54
55
56
57
58
59
60
61
62
63
64
65
66
67
68
69
70
71
72
73
74
75
76
77
78
79
80
81
82
83
84
85
86
87
88
89
90
91
92
93
94
95
96
97
98
99
100
101
102
103
104
105
106
107
108
109
110
111
112
113
114
115
116
117
118
119
120
121
122
123
124
125
126
127
128
129
130
131
132
133
134
135
136
137
138
139
140
141
142
143
144
145
146
147
148
149
150
151
152
153
154
155
156
157
158
159
160
161
162
163
164
165
166
167
168
169
170
171
172
173
174
175
176
177
178
179
180
181
182
183
184
185
186
187
188
189
190
191
192
193
194
195
196
197
198
199
200
201
202
203
204
205
206
207
208
209
210
211
212
213
214
215
216
217
218
219
220
221
222
223
224
225
226
227
228
229
230
231
232
233
234
235
236
237
238
239
240
241
242
243
244
245
246
247
248
249
250
251
252
253
254
255
256
257
258
259
260
261
262
263
264
265
266
267
268
269
270
271
272
273
274
275
276
277
278
279
280
281
282
283
284
285
286
287
288
289
290
291
292
293
294
295
296
297
298
299
300
301
302
303
304
305
306
307
308
309
310
311
312
313
314
315
316
317
318
319
320
321
322
323
324
325
326
327
328
329
330
331
332
333
334
335
336
337