<?xml version='1.0' encoding='UTF-8'?>
<VTKFile xmlns='VTK' byte_order='LittleEndian' version='0.1' type='UnstructuredGrid'>
<UnstructuredGrid>
<Piece NumberOfCells='584' NumberOfPoints='584'>
<Points>
<DataArray NumberOfComponents='3' type='Float32' Name='Position' format='ascii'>
-0.075000 -0.075000 0.000000
-0.075000 -0.050000 0.000000
-0.075000 -0.025000 0.000000
-0.075000 0.000000 0.000000
-0.075000 0.025000 0.000000
-0.075000 0.050000 0.000000
-0.075000 0.075000 0.000000
-0.075000 0.100000 0.000000
-0.075000 0.125000 0.000000
-0.075000 0.150000 0.000000
-0.075000 0.175000 0.000000
-0.075000 0.200000 0.000000
-0.075000 0.225000 0.000000
-0.075000 0.250000 0.000000
-0.075000 0.275000 0.000000
-0.075000 0.300000 0.000000
-0.075000 0.325000 0.000000
-0.075000 0.350000 0.000000
-0.075000 0.375000 0.000000
-0.075000 0.400000 0.000000
-0.075000 0.425000 0.000000
-0.075000 0.450000 0.000000
-0.075000 0.475000 0.000000
-0.075000 0.500000 0.000000
-0.075000 0.525000 0.000000
-0.075000 0.550000 0.000000
-0.075000 0.575000 0.000000
-0.075000 0.600000 0.000000
-0.050000 -0.075000 0.000000
-0.050000 -0.050000 0.000000
-0.050000 -0.025000 0.000000
-0.050000 0.000000 0.000000
-0.050000 0.025000 0.000000
-0.050000 0.050000 0.000000
-0.050000 0.075000 0.000000
-0.050000 0.100000 0.000000
-0.050000 0.125000 0.000000
-0.050000 0.150000 0.000000
-0.050000 0.175000 0.000000
-0.050000 0.200000 0.000000
-0.050000 0.225000 0.000000
-0.050000 0.250000 0.000000
-0.050000 0.275000 0.000000
-0.050000 0.300000 0.000000
-0.050000 0.325000 0.000000
-0.050000 0.350000 0.000000
-0.050000 0.375000 0.000000
-0.050000 0.400000 0.000000
-0.050000 0.425000 0.000000
-0.050000 0.450000 0.000000
-0.050000 0.475000 0.000000
-0.050000 0.500000 0.000000
-0.050000 0.525000 0.000000
-0.050000 0.550000 0.000000
-0.050000 0.575000 0.000000
-0.050000 0.600000 0.000000
-0.025000 -0.075000 0.000000
-0.025000 -0.050000 0.000000
-0.025000 -0.025000 0.000000
-0.025000 0.000000 0.000000
-0.025000 0.025000 0.000000
-0.025000 0.050000 0.000000
-0.025000 0.075000 0.000000
-0.025000 0.100000 0.000000
-0.025000 0.125000 0.000000
-0.025000 0.150000 0.000000
-0.025000 0.175000 0.000000
-0.025000 0.200000 0.000000
-0.025000 0.225000 0.000000
-0.025000 0.250000 0.000000
-0.025000 0.275000 0.000000
-0.025000 0.300000 0.000000
-0.025000 0.325000 0.000000
-0.025000 0.350000 0.000000
-0.025000 0.375000 0.000000
-0.025000 0.400000 0.000000
-0.025000 0.425000 0.000000
-0.025000 0.450000 0.000000
-0.025000 0.475000 0.000000
-0.025000 0.500000 0.000000
-0.025000 0.525000 0.000000
-0.025000 0.550000 0.000000
-0.025000 0.575000 0.000000
-0.025000 0.600000 0.000000
0.000000 -0.075000 0.000000
0.000000 -0.050000 0.000000
0.000000 -0.025000 0.000000
0.000000 0.000000 0.000000
0.000000 0.025000 0.000000
0.000000 0.050000 0.000000
0.000000 0.075000 0.000000
0.000000 0.100000 0.000000
0.000000 0.125000 0.000000
0.000000 0.150000 0.000000
0.000000 0.175000 0.000000
0.000000 0.200000 0.000000
0.000000 0.225000 0.000000
0.000000 0.250000 0.000000
0.000000 0.275000 0.000000
0.000000 0.300000 0.000000
0.000000 0.325000 0.000000
0.000000 0.350000 0.000000
0.000000 0.375000 0.000000
0.000000 0.400000 0.000000
0.000000 0.425000 0.000000
0.000000 0.450000 0.000000
0.000000 0.475000 0.000000
0.000000 0.500000 0.000000
0.000000 0.525000 0.000000
0.000000 0.550000 0.000000
0.000000 0.575000 0.000000
0.000000 0.600000 0.000000
0.025000 -0.075000 0.000000
0.025000 -0.050000 0.000000
0.025000 -0.025000 0.000000
0.025000 0.000000 0.000000
0.154744 0.065015 0.000000
0.231951 0.048408 0.000000
0.161862 0.039322 0.000000
0.182026 0.028463 0.000000
0.284987 0.022417 0.000000
0.086438 0.076952 0.000000
0.363674 0.022632 0.000000
0.230890 0.023052 0.000000
0.205185 0.022567 0.000000
0.033521 0.161477 0.000000
0.261738 0.025792 0.000000
0.070367 0.144088 0.000000
0.144353 0.023965 0.000000
0.050436 0.047668 0.000000
0.103567 0.083007 0.000000
0.036674 0.020437 0.000000
0.104916 0.134155 0.000000
0.091849 0.030719 0.000000
0.073216 0.119050 0.000000
0.123468 0.023703 0.000000
0.050000 -0.075000 0.000000
0.050000 -0.050000 0.000000
0.050000 -0.025000 0.000000
0.050000 0.000000 0.000000
0.280219 0.114846 0.000000
0.229816 0.231211 0.000000
0.286483 0.158703 0.000000
0.019869 0.036554 0.000000
0.032426 0.145554 0.000000
0.518402 0.041016 0.000000
0.220783 0.089162 0.000000
0.655374 0.044480 0.000000
0.280077 0.089889 0.000000
0.300985 0.130499 0.000000
0.050312 0.086889 0.000000
0.314704 0.049436 0.000000
0.086925 0.113763 0.000000
0.248909 0.121713 0.000000
0.120421 0.063351 0.000000
0.030500 0.093429 0.000000
0.204748 0.052981 0.000000
0.270226 0.064821 0.000000
0.094591 0.158464 0.000000
0.112497 0.043167 0.000000
0.075000 -0.075000 0.000000
0.075000 -0.050000 0.000000
0.075000 -0.025000 0.000000
0.075000 0.000000 0.000000
0.228586 0.106389 0.000000
0.171256 0.106113 0.000000
0.464678 0.049079 0.000000
0.381819 0.030050 0.000000
0.644267 0.099604 0.000000
0.723229 0.024279 0.000000
0.739089 0.040382 0.000000
0.049905 0.128553 0.000000
0.578242 0.087338 0.000000
0.716731 0.053612 0.000000
0.511567 0.022147 0.000000
0.230601 0.128975 0.000000
0.251205 0.045570 0.000000
0.303800 0.106287 0.000000
0.306176 0.029288 0.000000
0.119297 0.103171 0.000000
0.257308 0.094453 0.000000
0.036503 0.059458 0.000000
0.207645 0.074137 0.000000
0.187698 0.080367 0.000000
0.100000 -0.075000 0.000000
0.100000 -0.050000 0.000000
0.100000 -0.025000 0.000000
0.100000 0.000000 0.000000
0.562141 0.032181 0.000000
0.482944 0.083092 0.000000
0.581274 0.041690 0.000000
0.850357 0.023386 0.000000
0.289935 0.057847 0.000000
0.813739 0.023847 0.000000
0.750194 0.092692 0.000000
0.343092 0.048965 0.000000
0.756908 0.024498 0.000000
0.775210 0.047775 0.000000
0.542543 0.022136 0.000000
0.487207 0.113318 0.000000
0.664488 0.066471 0.000000
0.686502 0.045835 0.000000
0.307074 0.160500 0.000000
0.333272 0.022091 0.000000
0.615591 0.024489 0.000000
0.355230 0.107754 0.000000
0.445959 0.080441 0.000000
0.300012 0.076646 0.000000
0.125000 -0.075000 0.000000
0.125000 -0.050000 0.000000
0.125000 -0.025000 0.000000
0.125000 0.000000 0.000000
0.784665 0.091578 0.000000
0.848139 0.096723 0.000000
1.003428 0.101587 0.000000
0.888303 0.022143 0.000000
0.738278 0.138189 0.000000
0.671650 0.023073 0.000000
0.359444 0.149132 0.000000
0.662147 0.154880 0.000000
0.879929 0.072701 0.000000
0.799074 0.073814 0.000000
0.942395 0.079426 0.000000
0.661544 0.100917 0.000000
0.592755 0.023352 0.000000
0.607745 0.061336 0.000000
0.481116 0.026257 0.000000
0.631039 0.069476 0.000000
0.518053 0.113042 0.000000
0.148261 0.104274 0.000000
0.586500 0.067608 0.000000
0.070614 0.169765 0.000000
0.150000 -0.075000 0.000000
0.150000 -0.050000 0.000000
0.150000 -0.025000 0.000000
0.150000 0.000000 0.000000
0.349648 0.062917 0.000000
0.966291 0.023302 0.000000
0.798032 0.109344 0.000000
0.415844 0.063703 0.000000
0.919694 0.062802 0.000000
0.179817 0.051475 0.000000
0.980116 0.069036 0.000000
0.562214 0.066927 0.000000
1.004810 0.063899 0.000000
0.883705 0.093723 0.000000
0.906820 0.048167 0.000000
0.785231 0.021385 0.000000
0.872872 0.041023 0.000000
0.854679 0.082103 0.000000
0.833183 0.037174 0.000000
0.701732 0.065500 0.000000
0.699483 0.026251 0.000000
0.732092 0.086168 0.000000
0.741514 0.067692 0.000000
0.438137 0.115117 0.000000
0.175000 -0.075000 0.000000
0.175000 -0.050000 0.000000
0.175000 -0.025000 0.000000
0.175000 0.000000 0.000000
0.028197 0.122340 0.000000
0.761821 0.131216 0.000000
0.969154 0.127795 0.000000
0.958847 0.118745 0.000000
0.962853 0.051670 0.000000
0.132444 0.143801 0.000000
0.911230 0.027471 0.000000
0.395199 0.037795 0.000000
0.457643 0.023024 0.000000
0.936946 0.023494 0.000000
0.699245 0.120915 0.000000
0.813299 0.093083 0.000000
0.626607 0.098497 0.000000
0.946413 0.043383 0.000000
0.992529 0.042172 0.000000
0.490057 0.051570 0.000000
0.996677 0.022815 0.000000
0.572281 0.115563 0.000000
0.339835 0.137378 0.000000
0.601156 0.135136 0.000000
0.200000 -0.075000 0.000000
0.200000 -0.050000 0.000000
0.200000 -0.025000 0.000000
0.200000 0.000000 0.000000
0.520757 0.086045 0.000000
0.136258 0.070646 0.000000
0.406745 0.076727 0.000000
0.902844 0.079595 0.000000
0.447546 0.048067 0.000000
0.485548 0.140659 0.000000
0.679997 0.076912 0.000000
0.973873 0.085824 0.000000
0.543316 0.130096 0.000000
0.130340 0.190760 0.000000
0.909517 0.096729 0.000000
0.800796 0.046721 0.000000
0.071431 0.024127 0.000000
0.540865 0.052139 0.000000
0.754561 0.116915 0.000000
0.159244 0.135971 0.000000
0.819041 0.058377 0.000000
0.529486 0.135029 0.000000
0.950579 0.096542 0.000000
0.763841 0.061272 0.000000
0.225000 -0.075000 0.000000
0.225000 -0.050000 0.000000
0.225000 -0.025000 0.000000
0.225000 0.000000 0.000000
0.401648 0.139784 0.000000
0.927663 0.105896 0.000000
0.679585 0.104939 0.000000
0.243207 0.071832 0.000000
0.191854 0.119457 0.000000
0.055089 0.213425 0.000000
0.615391 0.089848 0.000000
0.991193 0.116342 0.000000
0.720863 0.112760 0.000000
0.264381 0.131886 0.000000
0.786530 0.117270 0.000000
0.091284 0.171326 0.000000
0.423277 0.021597 0.000000
0.534104 0.070021 0.000000
0.137730 0.117738 0.000000
0.423476 0.115313 0.000000
0.628441 0.046250 0.000000
0.076190 0.044354 0.000000
0.382213 0.153969 0.000000
0.419204 0.040806 0.000000
0.250000 -0.075000 0.000000
0.250000 -0.050000 0.000000
0.250000 -0.025000 0.000000
0.250000 0.000000 0.000000
0.832787 0.081138 0.000000
0.534844 0.105695 0.000000
0.449079 0.171940 0.000000
0.455547 0.127397 0.000000
0.378090 0.086367 0.000000
0.566041 0.100057 0.000000
0.321836 0.133839 0.000000
0.344151 0.088434 0.000000
0.327071 0.070783 0.000000
0.668834 0.143319 0.000000
0.338626 0.108677 0.000000
0.061977 0.189242 0.000000
0.177201 0.128305 0.000000
0.643226 0.025770 0.000000
0.500622 0.067403 0.000000
0.432371 0.089236 0.000000
0.469630 0.089065 0.000000
0.857830 0.048313 0.000000
0.060661 0.073532 0.000000
0.703864 0.102762 0.000000
0.275000 -0.075000 0.000000
0.275000 -0.050000 0.000000
0.275000 -0.025000 0.000000
0.275000 0.000000 0.000000
0.300000 -0.075000 0.000000
0.300000 -0.050000 0.000000
0.300000 -0.025000 0.000000
0.300000 0.000000 0.000000
0.325000 -0.075000 0.000000
0.325000 -0.050000 0.000000
0.325000 -0.025000 0.000000
0.325000 0.000000 0.000000
0.350000 -0.075000 0.000000
0.350000 -0.050000 0.000000
0.350000 -0.025000 0.000000
0.350000 0.000000 0.000000
0.375000 -0.075000 0.000000
0.375000 -0.050000 0.000000
0.375000 -0.025000 0.000000
0.375000 0.000000 0.000000
0.400000 -0.075000 0.000000
0.400000 -0.050000 0.000000
0.400000 -0.025000 0.000000
0.400000 0.000000 0.000000
0.425000 -0.075000 0.000000
0.425000 -0.050000 0.000000
0.425000 -0.025000 0.000000
0.425000 0.000000 0.000000
0.450000 -0.075000 0.000000
0.450000 -0.050000 0.000000
0.450000 -0.025000 0.000000
0.450000 0.000000 0.000000
0.475000 -0.075000 0.000000
0.475000 -0.050000 0.000000
0.475000 -0.025000 0.000000
0.475000 0.000000 0.000000
0.500000 -0.075000 0.000000
0.500000 -0.050000 0.000000
0.500000 -0.025000 0.000000
0.500000 0.000000 0.000000
0.525000 -0.075000 0.000000
0.525000 -0.050000 0.000000
0.525000 -0.025000 0.000000
0.525000 0.000000 0.000000
0.550000 -0.075000 0.000000
0.550000 -0.050000 0.000000
0.550000 -0.025000 0.000000
0.550000 0.000000 0.000000
0.575000 -0.075000 0.000000
0.575000 -0.050000 0.000000
0.575000 -0.025000 0.000000
0.575000 0.000000 0.000000
0.600000 -0.075000 0.000000
0.600000 -0.050000 0.000000
0.600000 -0.025000 0.000000
0.600000 0.000000 0.000000
0.625000 -0.075000 0.000000
0.625000 -0.050000 0.000000
0.625000 -0.025000 0.000000
0.625000 0.000000 0.000000
0.650000 -0.075000 0.000000
0.650000 -0.050000 0.000000
0.650000 -0.025000 0.000000
0.650000 0.000000 0.000000
0.675000 -0.075000 0.000000
0.675000 -0.050000 0.000000
0.675000 -0.025000 0.000000
0.675000 0.000000 0.000000
0.700000 -0.075000 0.000000
0.700000 -0.050000 0.000000
0.700000 -0.025000 0.000000
0.700000 0.000000 0.000000
0.725000 -0.075000 0.000000
0.725000 -0.050000 0.000000
0.725000 -0.025000 0.000000
0.725000 0.000000 0.000000
0.750000 -0.075000 0.000000
0.750000 -0.050000 0.000000
0.750000 -0.025000 0.000000
0.750000 0.000000 0.000000
0.775000 -0.075000 0.000000
0.775000 -0.050000 0.000000
0.775000 -0.025000 0.000000
0.775000 0.000000 0.000000
0.800000 -0.075000 0.000000
0.800000 -0.050000 0.000000
0.800000 -0.025000 0.000000
0.800000 0.000000 0.000000
0.825000 -0.075000 0.000000
0.825000 -0.050000 0.000000
0.825000 -0.025000 0.000000
0.825000 0.000000 0.000000
0.850000 -0.075000 0.000000
0.850000 -0.050000 0.000000
0.850000 -0.025000 0.000000
0.850000 0.000000 0.000000
0.875000 -0.075000 0.000000
0.875000 -0.050000 0.000000
0.875000 -0.025000 0.000000
0.875000 0.000000 0.000000
0.900000 -0.075000 0.000000
0.900000 -0.050000 0.000000
0.900000 -0.025000 0.000000
0.900000 0.000000 0.000000
0.925000 -0.075000 0.000000
0.925000 -0.050000 0.000000
0.925000 -0.025000 0.000000
0.925000 0.000000 0.000000
0.950000 -0.075000 0.000000
0.950000 -0.050000 0.000000
0.950000 -0.025000 0.000000
0.950000 0.000000 0.000000
0.975000 -0.075000 0.000000
0.975000 -0.050000 0.000000
0.975000 -0.025000 0.000000
0.975000 0.000000 0.000000
1.000000 -0.075000 0.000000
1.000000 -0.050000 0.000000
1.000000 -0.025000 0.000000
1.000000 0.000000 0.000000
1.025000 -0.075000 0.000000
1.025000 -0.050000 0.000000
1.025000 -0.025000 0.000000
1.025000 0.000000 0.000000
1.025000 0.025000 0.000000
1.025000 0.050000 0.000000
1.025000 0.075000 0.000000
1.025000 0.100000 0.000000
1.025000 0.125000 0.000000
1.025000 0.150000 0.000000
1.025000 0.175000 0.000000
1.025000 0.200000 0.000000
1.025000 0.225000 0.000000
1.025000 0.250000 0.000000
1.025000 0.275000 0.000000
1.025000 0.300000 0.000000
1.025000 0.325000 0.000000
1.025000 0.350000 0.000000
1.025000 0.375000 0.000000
1.025000 0.400000 0.000000
1.025000 0.425000 0.000000
1.025000 0.450000 0.000000
1.025000 0.475000 0.000000
1.025000 0.500000 0.000000
1.025000 0.525000 0.000000
1.025000 0.550000 0.000000
1.025000 0.575000 0.000000
1.025000 0.600000 0.000000
1.050000 -0.075000 0.000000
1.050000 -0.050000 0.000000
1.050000 -0.025000 0.000000
1.050000 0.000000 0.000000
1.050000 0.025000 0.000000
1.050000 0.050000 0.000000
1.050000 0.075000 0.000000
1.050000 0.100000 0.000000
1.050000 0.125000 0.000000
1.050000 0.150000 0.000000
1.050000 0.175000 0.000000
1.050000 0.200000 0.000000
1.050000 0.225000 0.000000
1.050000 0.250000 0.000000
1.050000 0.275000 0.000000
1.050000 0.300000 0.000000
1.050000 0.325000 0.000000
1.050000 0.350000 0.000000
1.050000 0.375000 0.000000
1.050000 0.400000 0.000000
1.050000 0.425000 0.000000
1.050000 0.450000 0.000000
1.050000 0.475000 0.000000
1.050000 0.500000 0.000000
1.050000 0.525000 0.000000
1.050000 0.550000 0.000000
1.050000 0.575000 0.000000
1.050000 0.600000 0.000000
1.075000 -0.075000 0.000000
1.075000 -0.050000 0.000000
1.075000 -0.025000 0.000000
1.075000 0.000000 0.000000
1.075000 0.025000 0.000000
1.075000 0.050000 0.000000
1.075000 0.075000 0.000000
1.075000 0.100000 0.000000
1.075000 0.125000 0.000000
1.075000 0.150000 0.000000
1.075000 0.175000 0.000000
1.075000 0.200000 0.000000
1.075000 0.225000 0.000000
1.075000 0.250000 0.000000
1.075000 0.275000 0.000000
1.075000 0.300000 0.000000
1.075000 0.325000 0.000000
1.075000 0.350000 0.000000
1.075000 0.375000 0.000000
1.075000 0.400000 0.000000
1.075000 0.425000 0.000000
1.075000 0.450000 0.000000
1.075000 0.475000 0.000000
1.075000 0.500000 0.000000
1.075000 0.525000 0.000000
1.075000 0.550000 0.000000
1.075000 0.575000 0.000000
1.075000 0.600000 0.000000
1.100000 -0.075000 0.000000
1.100000 -0.050000 0.000000
1.100000 -0.025000 0.000000
1.100000 0.000000 0.000000
1.100000 0.025000 0.000000
1.100000 0.050000 0.000000
1.100000 0.075000 0.000000
1.100000 0.100000 0.000000
1.100000 0.125000 0.000000
1.100000 0.150000 0.000000
1.100000 0.175000 0.000000
1.100000 0.200000 0.000000
1.100000 0.225000 0.000000
1.100000 0.250000 0.000000
1.100000 0.275000 0.000000
1.100000 0.300000 0.000000
1.100000 0.325000 0.000000
1.100000 0.350000 0.000000
1.100000 0.375000 0.000000
1.100000 0.400000 0.000000
1.100000 0.425000 0.000000
1.100000 0.450000 0.000000
1.100000 0.475000 0.000000
1.100000 0.500000 0.000000
1.100000 0.525000 0.000000
1.100000 0.550000 0.000000
1.100000 0.575000 0.000000
1.100000 0.600000 0.000000
</DataArray>
</Points>
<PointData>
<DataArray NumberOfComponents='1' type='Int32' Name='ParticleType' format='ascii'>
3
3
3
3
3
3
3
3
3
3
3
3
3
3
3
3
3
3
3
3
3
3
3
3
3
3
2
2
3
3
3
3
3
3
3
3
3
3
3
3
3
3
3
3
3
3
3
3
3
3
3
3
3
3
2
2
3
3
2
2
2
2
2
2
2
2
2
2
2
2
2
2
2
2
2
2
2
2
2
2
2
2
2
2
3
3
2
2
2
2
2
2
2
2
2
2
2
2
2
2
2
2
2
2
2
2
2
2
2
2
2
2
3
3
2
2
0
0
0
0
0
0
0
0
0
0
0
0
0
0
0
0
0
0
0
0
3
3
2
2
0
0
0
0
0
0
0
0
0
0
0
0
0
0
0
0
0
0
0
0
3
3
2
2
0
0
0
0
0
0
0
0
0
0
0
0
0
0
0
0
0
0
0
0
3
3
2
2
0
0
0
0
0
0
0
0
0
0
0
0
0
0
0
0
0
0
0
0
3
3
2
2
0
0
0
0
0
0
0
0
0
0
0
0
0
0
0
0
0
0
0
0
3
3
2
2
0
0
0
0
0
0
0
0
0
0
0
0
0
0
0
0
0
0
0
0
3
3
2
2
0
0
0
0
0
0
0
0
0
0
0
0
0
0
0
0
0
0
0
0
3
3
2
2
0
0
0
0
0
0
0
0
0
0
0
0
0
0
0
0
0
0
0
0
3
3
2
2
0
0
0
0
0
0
0
0
0
0
0
0
0
0
0
0
0
0
0
0
3
3
2
2
0
0
0
0
0
0
0
0
0
0
0
0
0
0
0
0
0
0
0
0
3
3
2
2
3
3
2
2
3
3
2
2
3
3
2
2
3
3
2
2
3
3
2
2
3
3
2
2
3
3
2
2
3
3
2
2
3
3
2
2
3
3
2
2
3
3
2
2
3
3
2
2
3
3
2
2
3
3
2
2
3
3
2
2
3
3
2
2
3
3
2
2
3
3
2
2
3
3
2
2
3
3
2
2
3
3
2
2
3
3
2
2
3
3
2
2
3
3
2
2
3
3
2
2
3
3
2
2
3
3
2
2
3
3
2
2
3
3
2
2
3
3
2
2
2
2
2
2
2
2
2
2
2
2
2
2
2
2
2
2
2
2
2
2
2
2
2
2
3
3
2
2
2
2
2
2
2
2
2
2
2
2
2
2
2
2
2
2
2
2
2
2
2
2
2
2
3
3
3
3
3
3
3
3
3
3
3
3
3
3
3
3
3
3
3
3
3
3
3
3
3
3
2
2
3
3
3
3
3
3
3
3
3
3
3
3
3
3
3
3
3
3
3
3
3
3
3
3
3
3
2
2
</DataArray>
<DataArray NumberOfComponents='1' type='Float32' Name='Velocity' format='ascii'>
0.000000
0.000000
0.000000
0.000000
0.000000
0.000000
0.000000
0.000000
0.000000
0.000000
0.000000
0.000000
0.000000
0.000000
0.000000
0.000000
0.000000
0.000000
0.000000
0.000000
0.000000
0.000000
0.000000
0.000000
0.000000
0.000000
0.000000
0.000000
0.000000
0.000000
0.000000
0.000000
0.000000
0.000000
0.000000
0.000000
0.000000
0.000000
0.000000
0.000000
0.000000
0.000000
0.000000
0.000000
0.000000
0.000000
0.000000
0.000000
0.000000
0.000000
0.000000
0.000000
0.000000
0.000000
0.000000
0.000000
0.000000
0.000000
0.000000
0.000000
0.000000
0.000000
0.000000
0.000000
0.000000
0.000000
0.000000
0.000000
0.000000
0.000000
0.000000
0.000000
0.000000
0.000000
0.000000
0.000000
0.000000
0.000000
0.000000
0.000000
0.000000
0.000000
0.000000
0.000000
0.000000
0.000000
0.000000
0.000000
0.000000
0.000000
0.000000
0.000000
0.000000
0.000000
0.000000
0.000000
0.000000
0.000000
0.000000
0.000000
0.000000
0.000000
0.000000
0.000000
0.000000
0.000000
0.000000
0.000000
0.000000
0.000000
0.000000
0.000000
0.000000
0.000000
0.000000
0.000000
0.689966
0.336876
0.094783
0.343862
0.338903
0.337963
0.423405
0.644703
0.356716
1.898137
0.568410
1.084450
0.205535
0.632326
0.414599
0.158811
1.167761
0.460782
0.418535
0.354041
0.000000
0.000000
0.000000
0.000000
0.883283
1.374485
1.218070
0.318370
0.754986
0.495990
0.918443
0.696501
0.930815
1.264231
0.872081
0.538007
0.663503
0.809785
0.514439
0.610826
0.207102
0.671581
1.632887
0.403338
0.000000
0.000000
0.000000
0.000000
0.922009
0.234710
0.603649
0.547102
0.935330
0.455816
0.425752
0.440893
0.909805
0.417472
0.213570
1.533361
0.339273
0.771600
0.359286
0.924351
0.754183
0.260389
0.779522
1.264979
0.000000
0.000000
0.000000
0.000000
0.504501
0.476201
0.406670
0.194899
0.662628
0.315819
0.729559
0.746059
0.570837
0.631854
0.584084
0.559252
0.707669
0.585375
1.513106
0.429351
0.364591
0.175856
0.538227
0.428536
0.000000
0.000000
0.000000
0.000000
0.445546
0.865308
0.189970
0.468408
1.169681
0.502882
1.353884
0.931264
1.261878
0.268675
0.637427
0.830786
0.706601
0.673966
0.559367
0.630225
1.221900
0.956753
0.749718
0.849524
0.000000
0.000000
0.000000
0.000000
0.290476
0.279582
0.422280
1.152249
0.317861
0.195036
0.315860
0.341844
0.393936
1.456324
0.306367
0.197264
0.371734
0.633426
0.258918
0.249484
0.652879
0.780260
0.457074
0.968985
0.000000
0.000000
0.000000
0.000000
0.702717
0.694247
0.404487
0.312952
0.199783
1.461954
0.282234
0.360348
0.372227
0.251808
0.750206
0.286985
0.837135
0.370653
0.148106
0.935456
0.217310
0.800584
1.229599
1.152633
0.000000
0.000000
0.000000
0.000000
0.684922
0.386368
1.208629
0.442140
0.887376
1.168582
0.659633
0.170101
1.243052
1.579350
2.414944
0.331088
0.383646
0.619094
0.923711
1.434504
0.553565
0.708315
0.072228
0.180725
0.000000
0.000000
0.000000
0.000000
1.245979
3.014242
0.894110
0.040169
0.882236
1.177892
0.965969
0.364985
0.779257
0.767640
0.860733
1.770393
0.320164
0.979845
1.075958
1.036850
0.689169
0.865621
0.947105
0.327512
0.000000
0.000000
0.000000
0.000000
0.296707
0.965602
1.011659
0.987729
0.680386
1.126483
0.752458
0.604725
0.966285
0.880874
0.370534
0.930432
1.738626
0.541737
0.705205
0.279016
0.464282
0.204601
0.066311
0.896809
0.000000
0.000000
0.000000
0.000000
0.000000
0.000000
0.000000
0.000000
0.000000
0.000000
0.000000
0.000000
0.000000
0.000000
0.000000
0.000000
0.000000
0.000000
0.000000
0.000000
0.000000
0.000000
0.000000
0.000000
0.000000
0.000000
0.000000
0.000000
0.000000
0.000000
0.000000
0.000000
0.000000
0.000000
0.000000
0.000000
0.000000
0.000000
0.000000
0.000000
0.000000
0.000000
0.000000
0.000000
0.000000
0.000000
0.000000
0.000000
0.000000
0.000000
0.000000
0.000000
0.000000
0.000000
0.000000
0.000000
0.000000
0.000000
0.000000
0.000000
0.000000
0.000000
0.000000
0.000000
0.000000
0.000000
0.000000
0.000000
0.000000
0.000000
0.000000
0.000000
0.000000
0.000000
0.000000
0.000000
0.000000
0.000000
0.000000
0.000000
0.000000
0.000000
0.000000
0.000000
0.000000
0.000000
0.000000
0.000000
0.000000
0.000000
0.000000
0.000000
0.000000
0.000000
0.000000
0.000000
0.000000
0.000000
0.000000
0.000000
0.000000
0.000000
0.000000
0.000000
0.000000
0.000000
0.000000
0.000000
0.000000
0.000000
0.000000
0.000000
0.000000
0.000000
0.000000
0.000000
0.000000
0.000000
0.000000
0.000000
0.000000
0.000000
0.000000
0.000000
0.000000
0.000000
0.000000
0.000000
0.000000
0.000000
0.000000
0.000000
0.000000
0.000000
0.000000
0.000000
0.000000
0.000000
0.000000
0.000000
0.000000
0.000000
0.000000
0.000000
0.000000
0.000000
0.000000
0.000000
0.000000
0.000000
0.000000
0.000000
0.000000
0.000000
0.000000
0.000000
0.000000
0.000000
0.000000
0.000000
0.000000
0.000000
0.000000
0.000000
0.000000
0.000000
0.000000
0.000000
0.000000
0.000000
0.000000
0.000000
0.000000
0.000000
0.000000
0.000000
0.000000
0.000000
0.000000
0.000000
0.000000
0.000000
0.000000
0.000000
0.000000
0.000000
0.000000
0.000000
0.000000
0.000000
0.000000
0.000000
0.000000
0.000000
0.000000
0.000000
0.000000
0.000000
0.000000
0.000000
0.000000
0.000000
0.000000
0.000000
0.000000
0.000000
0.000000
0.000000
0.000000
0.000000
0.000000
0.000000
0.000000
0.000000
0.000000
0.000000
0.000000
0.000000
0.000000
0.000000
0.000000
0.000000
0.000000
0.000000
0.000000
0.000000
0.000000
0.000000
0.000000
0.000000
0.000000
0.000000
</DataArray>
<DataArray NumberOfComponents='1' type='Float32' Name='pressure' format='ascii'>
0.000000
0.000000
0.000000
0.000000
0.000000
0.000000
0.000000
0.000000
0.000000
0.000000
0.000000
0.000000
0.000000
0.000000
0.000000
0.000000
0.000000
0.000000
0.000000
0.000000
0.000000
0.000000
0.000000
0.000000
0.000000
0.000000
0.000000
0.000000
0.000000
0.000000
0.000000
0.000000
0.000000
0.000000
0.000000
0.000000
0.000000
0.000000
0.000000
0.000000
0.000000
0.000000
0.000000
0.000000
0.000000
0.000000
0.000000
0.000000
0.000000
0.000000
0.000000
0.000000
0.000000
0.000000
0.000000
0.000000
0.000000
0.000000
3333.257812
3199.702393
3952.760986
2602.632324
0.000000
0.000000
0.000000
0.000000
0.000000
0.000000
0.000000
0.000000
0.000000
0.000000
0.000000
0.000000
0.000000
0.000000
0.000000
0.000000
0.000000
0.000000
0.000000
0.000000
0.000000
0.000000
0.000000
0.000000
3228.153320
3327.809082
3660.315674
0.000000
0.000000
0.000000
0.000000
0.000000
0.000000
0.000000
0.000000
0.000000
0.000000
0.000000
0.000000
0.000000
0.000000
0.000000
0.000000
0.000000
0.000000
0.000000
0.000000
0.000000
0.000000
0.000000
0.000000
0.000000
3953.593750
2822.270020
0.000000
1160.296631
876.072327
643.808289
1067.225220
0.000000
0.000000
86.865257
341.939636
0.000000
0.000000
0.000000
372.773529
1819.035645
0.000000
2183.974365
0.000000
1938.595215
223.752823
571.567810
0.000000
0.000000
3129.547852
901.081848
0.000000
0.000000
0.000000
770.983582
0.000000
857.024536
220.078369
710.671753
1710.369507
0.000000
0.000000
1265.065063
0.000000
0.000000
1368.362793
0.000000
862.662964
0.000000
2513.469482
0.000000
0.000000
0.000000
1762.845947
587.548035
0.000000
0.000000
1655.701538
970.319275
0.000000
1028.889526
1139.424927
0.000000
0.000000
325.709290
1385.326904
0.000000
1031.903931
0.000000
0.000000
0.000000
0.000000
0.000000
992.832764
0.000000
0.000000
0.000000
370.476440
0.000000
896.594543
373.830536
1930.607422
2455.079346
1578.702148
1804.539062
0.000000
0.000000
0.000000
510.510529
2449.941650
0.000000
278.215729
879.385315
0.000000
0.000000
1356.539185
0.000000
1178.757446
0.000000
0.000000
0.000000
1496.983398
2342.728516
0.000000
0.000000
0.000000
2970.830566
0.000000
0.000000
0.000000
0.000000
81.053413
1446.494751
0.000000
688.250854
1849.294800
0.000000
0.000000
762.530457
0.000000
0.000000
1854.987183
0.000000
0.000000
0.000000
1241.840820
799.017456
0.000000
1108.604980
1255.056152
0.000000
1905.318359
144.710510
2063.208984
0.000000
1696.522827
0.000000
2279.825684
524.079102
2753.784424
1814.661987
1663.001953
0.000000
722.417786
0.000000
1221.295532
0.000000
0.000000
0.000000
384.870026
0.000000
0.000000
0.000000
0.000000
0.000000
2256.257812
0.000000
3338.634766
0.000000
1141.385498
4008.809814
0.000000
0.000000
541.847961
2323.814209
2774.814941
242.517914
2860.923340
0.000000
0.000000
0.000000
0.000000
0.000000
2271.007080
2036.802368
0.000000
0.000000
0.000000
8758.580078
0.000000
0.000000
634.418884
0.000000
0.000000
0.000000
0.000000
1330.330444
2808.511475
1598.083984
0.000000
0.000000
1711.187744
0.000000
2079.136475
157.188034
0.000000
0.000000
2675.815674
2560.507080
0.000000
0.000000
0.000000
0.000000
0.000000
0.000000
736.642334
0.000000
0.000000
0.000000
0.000000
0.000000
757.792480
0.000000
280.075043
0.000000
665.015991
1297.176758
0.000000
1338.811035
0.000000
0.000000
1533.223755
1185.080688
396.406158
1647.757812
0.000000
0.000000
0.000000
1293.916748
0.000000
0.000000
295.776093
0.000000
2647.210693
0.000000
0.000000
2135.778809
0.000000
951.481873
0.000000
508.945404
0.000000
362.506592
0.000000
0.000000
2514.035156
3113.671875
0.000000
0.000000
2047.067139
2113.388916
0.000000
0.000000
2482.203613
1014.566223
0.000000
0.000000
2393.503662
1269.163452
0.000000
0.000000
1462.035522
802.992493
0.000000
0.000000
333.133789
0.000000
0.000000
0.000000
2193.223389
622.212891
0.000000
0.000000
1605.369507
937.536316
0.000000
0.000000
1217.135620
102.710648
0.000000
0.000000
2199.529297
917.961060
0.000000
0.000000
3119.437500
3209.498047
0.000000
0.000000
2731.465332
1117.271729
0.000000
0.000000
1237.570068
145.672516
0.000000
0.000000
2146.965576
2483.172363
0.000000
0.000000
1366.024780
1505.138916
0.000000
0.000000
913.545654
742.377808
0.000000
0.000000
1765.561890
1796.813354
0.000000
0.000000
708.344177
703.805176
0.000000
0.000000
1376.589966
1006.707336
0.000000
0.000000
1519.506104
354.473450
0.000000
0.000000
2920.929688
2420.222656
0.000000
0.000000
3400.094482
2521.083252
0.000000
0.000000
2553.762451
1539.831787
0.000000
0.000000
3359.039307
2520.847900
0.000000
0.000000
3565.412598
2050.236572
0.000000
0.000000
4134.080078
4451.322754
0.000000
0.000000
3795.013428
3806.886963
0.000000
0.000000
4087.607422
3438.052734
0.000000
0.000000
3873.858154
3142.333496
0.000000
0.000000
3982.996094
4585.080566
0.000000
0.000000
2783.948730
1945.760376
293.786346
1982.523926
1479.423950
602.350525
0.000000
0.000000
0.000000
0.000000
0.000000
0.000000
0.000000
0.000000
0.000000
0.000000
0.000000
0.000000
0.000000
0.000000
0.000000
0.000000
0.000000
0.000000
0.000000
0.000000
0.000000
0.000000
2390.790039
2088.280762
1170.873169
2917.197754
3044.517822
2321.888672
0.000000
0.000000
0.000000
0.000000
0.000000
0.000000
0.000000
0.000000
0.000000
0.000000
0.000000
0.000000
0.000000
0.000000
0.000000
0.000000
0.000000
0.000000
0.000000
0.000000
0.000000
0.000000
0.000000
0.000000
0.000000
0.000000
0.000000
0.000000
0.000000
0.000000
0.000000
0.000000
0.000000
0.000000
0.000000
0.000000
0.000000
0.000000
0.000000
0.000000
0.000000
0.000000
0.000000
0.000000
0.000000
0.000000
0.000000
0.000000
0.000000
0.000000
0.000000
0.000000
0.000000
0.000000
0.000000
0.000000
0.000000
0.000000
0.000000
0.000000
0.000000
0.000000
0.000000
0.000000
0.000000
0.000000
0.000000
0.000000
0.000000
0.000000
0.000000
0.000000
0.000000
0.000000
0.000000
0.000000
</DataArray>
</PointData>
<Cells>
<DataArray type='Int32' Name='connectivity' format='ascii'>
0
1
2
3
4
5
6
7
8
9
10
11
12
13
14
15
16
17
18
19
20
21
22
23
24
25
26
27
28
29
30
31
32
33
34
35
36
37
38
39
40
41
42
43
44
45
46
47
48
49
50
51
52
53
54
55
56
57
58
59
60
61
62
63
64
65
66
67
68
69
70
71
72
73
74
75
76
77
78
79
80
81
82
83
84
85
86
87
88
89
90
91
92
93
94
95
96
97
98
99
100
101
102
103
104
105
106
107
108
109
110
111
112
113
114
115
116
117
118
119
120
121
122
123
124
125
126
127
128
129
130
131
132
133
134
135
136
137
138
139
140
141
142
143
144
145
146
147
148
149
150
151
152
153
154
155
156
157
158
159
160
161
162
163
164
165
166
167
168
169
170
171
172
173
174
175
176
177
178
179
180
181
182
183
184
185
186
187
188
189
190
191
192
193
194
195
196
197
198
199
200
201
202
203
204
205
206
207
208
209
210
211
212
213
214
215
216
217
218
219
220
221
222
223
224
225
226
227
228
229
230
231
232
233
234
235
236
237
238
239
240
241
242
243
244
245
246
247
248
249
250
251
252
253
254
255
256
257
258
259
260
261
262
263
264
265
266
267
268
269
270
271
272
273
274
275
276
277
278
279
280
281
282
283
284
285
286
287
288
289
290
291
292
293
294
295
296
297
298
299
300
301
302
303
304
305
306
307
308
309
310