<?xml version='1.0' encoding='UTF-8'?>
<VTKFile xmlns='VTK' byte_order='LittleEndian' version='0.1' type='UnstructuredGrid'>
<UnstructuredGrid>
<Piece NumberOfCells='584' NumberOfPoints='584'>
<Points>
<DataArray NumberOfComponents='3' type='Float32' Name='Position' format='ascii'>
-0.075000 -0.075000 0.000000
-0.075000 -0.050000 0.000000
-0.075000 -0.025000 0.000000
-0.075000 0.000000 0.000000
-0.075000 0.025000 0.000000
-0.075000 0.050000 0.000000
-0.075000 0.075000 0.000000
-0.075000 0.100000 0.000000
-0.075000 0.125000 0.000000
-0.075000 0.150000 0.000000
-0.075000 0.175000 0.000000
-0.075000 0.200000 0.000000
-0.075000 0.225000 0.000000
-0.075000 0.250000 0.000000
-0.075000 0.275000 0.000000
-0.075000 0.300000 0.000000
-0.075000 0.325000 0.000000
-0.075000 0.350000 0.000000
-0.075000 0.375000 0.000000
-0.075000 0.400000 0.000000
-0.075000 0.425000 0.000000
-0.075000 0.450000 0.000000
-0.075000 0.475000 0.000000
-0.075000 0.500000 0.000000
-0.075000 0.525000 0.000000
-0.075000 0.550000 0.000000
-0.075000 0.575000 0.000000
-0.075000 0.600000 0.000000
-0.050000 -0.075000 0.000000
-0.050000 -0.050000 0.000000
-0.050000 -0.025000 0.000000
-0.050000 0.000000 0.000000
-0.050000 0.025000 0.000000
-0.050000 0.050000 0.000000
-0.050000 0.075000 0.000000
-0.050000 0.100000 0.000000
-0.050000 0.125000 0.000000
-0.050000 0.150000 0.000000
-0.050000 0.175000 0.000000
-0.050000 0.200000 0.000000
-0.050000 0.225000 0.000000
-0.050000 0.250000 0.000000
-0.050000 0.275000 0.000000
-0.050000 0.300000 0.000000
-0.050000 0.325000 0.000000
-0.050000 0.350000 0.000000
-0.050000 0.375000 0.000000
-0.050000 0.400000 0.000000
-0.050000 0.425000 0.000000
-0.050000 0.450000 0.000000
-0.050000 0.475000 0.000000
-0.050000 0.500000 0.000000
-0.050000 0.525000 0.000000
-0.050000 0.550000 0.000000
-0.050000 0.575000 0.000000
-0.050000 0.600000 0.000000
-0.025000 -0.075000 0.000000
-0.025000 -0.050000 0.000000
-0.025000 -0.025000 0.000000
-0.025000 0.000000 0.000000
-0.025000 0.025000 0.000000
-0.025000 0.050000 0.000000
-0.025000 0.075000 0.000000
-0.025000 0.100000 0.000000
-0.025000 0.125000 0.000000
-0.025000 0.150000 0.000000
-0.025000 0.175000 0.000000
-0.025000 0.200000 0.000000
-0.025000 0.225000 0.000000
-0.025000 0.250000 0.000000
-0.025000 0.275000 0.000000
-0.025000 0.300000 0.000000
-0.025000 0.325000 0.000000
-0.025000 0.350000 0.000000
-0.025000 0.375000 0.000000
-0.025000 0.400000 0.000000
-0.025000 0.425000 0.000000
-0.025000 0.450000 0.000000
-0.025000 0.475000 0.000000
-0.025000 0.500000 0.000000
-0.025000 0.525000 0.000000
-0.025000 0.550000 0.000000
-0.025000 0.575000 0.000000
-0.025000 0.600000 0.000000
0.000000 -0.075000 0.000000
0.000000 -0.050000 0.000000
0.000000 -0.025000 0.000000
0.000000 0.000000 0.000000
0.000000 0.025000 0.000000
0.000000 0.050000 0.000000
0.000000 0.075000 0.000000
0.000000 0.100000 0.000000
0.000000 0.125000 0.000000
0.000000 0.150000 0.000000
0.000000 0.175000 0.000000
0.000000 0.200000 0.000000
0.000000 0.225000 0.000000
0.000000 0.250000 0.000000
0.000000 0.275000 0.000000
0.000000 0.300000 0.000000
0.000000 0.325000 0.000000
0.000000 0.350000 0.000000
0.000000 0.375000 0.000000
0.000000 0.400000 0.000000
0.000000 0.425000 0.000000
0.000000 0.450000 0.000000
0.000000 0.475000 0.000000
0.000000 0.500000 0.000000
0.000000 0.525000 0.000000
0.000000 0.550000 0.000000
0.000000 0.575000 0.000000
0.000000 0.600000 0.000000
0.025000 -0.075000 0.000000
0.025000 -0.050000 0.000000
0.025000 -0.025000 0.000000
0.025000 0.000000 0.000000
0.267168 0.055493 0.000000
0.256363 0.025963 0.000000
0.225437 0.063165 0.000000
0.195150 0.023480 0.000000
0.351579 0.023804 0.000000
0.080613 0.036670 0.000000
0.431987 0.022895 0.000000
0.280257 0.023047 0.000000
0.222685 0.022397 0.000000
0.162041 0.059503 0.000000
0.301557 0.028218 0.000000
0.196242 0.070959 0.000000
0.172160 0.029543 0.000000
0.042355 0.023986 0.000000
0.064955 0.065743 0.000000
0.021795 0.037393 0.000000
0.119312 0.030717 0.000000
0.103189 0.021180 0.000000
0.129222 0.056821 0.000000
0.150803 0.021666 0.000000
0.050000 -0.075000 0.000000
0.050000 -0.050000 0.000000
0.050000 -0.025000 0.000000
0.050000 0.000000 0.000000
0.341622 0.064939 0.000000
0.406907 0.211138 0.000000
0.414956 0.178436 0.000000
0.115570 0.151518 0.000000
0.210906 0.126291 0.000000
0.609281 0.059694 0.000000
0.350266 0.111038 0.000000
0.721725 0.044960 0.000000
0.362004 0.041319 0.000000
0.384870 0.086210 0.000000
0.223753 0.107197 0.000000
0.411032 0.052280 0.000000
0.071650 0.083121 0.000000
0.399880 0.100708 0.000000
0.236711 0.078424 0.000000
0.203493 0.106368 0.000000
0.209889 0.049187 0.000000
0.326295 0.024086 0.000000
0.140573 0.048181 0.000000
0.181514 0.053438 0.000000
0.075000 -0.075000 0.000000
0.075000 -0.050000 0.000000
0.075000 -0.025000 0.000000
0.075000 0.000000 0.000000
0.367955 0.088963 0.000000
0.328835 0.150345 0.000000
0.535148 0.029411 0.000000
0.464405 0.022687 0.000000
0.742456 0.088836 0.000000
0.794953 0.022751 0.000000
0.798006 0.050688 0.000000
0.043141 0.141770 0.000000
0.714675 0.083964 0.000000
0.776722 0.053467 0.000000
0.586388 0.023999 0.000000
0.393490 0.154809 0.000000
0.283659 0.059999 0.000000
0.362859 0.068921 0.000000
0.381620 0.025873 0.000000
0.295851 0.101722 0.000000
0.324200 0.056006 0.000000
0.187416 0.128340 0.000000
0.256442 0.082068 0.000000
0.238615 0.040215 0.000000
0.100000 -0.075000 0.000000
0.100000 -0.050000 0.000000
0.100000 -0.025000 0.000000
0.100000 0.000000 0.000000
0.628705 0.021620 0.000000
0.560159 0.023202 0.000000
0.651195 0.061304 0.000000
0.893362 0.030398 0.000000
0.389221 0.050779 0.000000
0.867009 0.020989 0.000000
0.824037 0.094459 0.000000
0.483557 0.072217 0.000000
0.820109 0.025632 0.000000
0.824246 0.050021 0.000000
0.605756 0.032736 0.000000
0.596203 0.083058 0.000000
0.759863 0.077406 0.000000
0.749156 0.047901 0.000000
0.442764 0.083234 0.000000
0.404286 0.026119 0.000000
0.672324 0.022227 0.000000
0.618536 0.113269 0.000000
0.532862 0.068305 0.000000
0.431088 0.057840 0.000000
0.125000 -0.075000 0.000000
0.125000 -0.050000 0.000000
0.125000 -0.025000 0.000000
0.125000 0.000000 0.000000
0.843042 0.072043 0.000000
0.908721 0.100118 0.000000
1.004257 0.106375 0.000000
0.913539 0.026941 0.000000
0.860229 0.153881 0.000000
0.748325 0.024144 0.000000
0.560407 0.106357 0.000000
0.773138 0.138322 0.000000
0.926830 0.082252 0.000000
0.863540 0.089257 0.000000
0.946502 0.064280 0.000000
0.741219 0.157428 0.000000
0.651605 0.031545 0.000000
0.693964 0.057193 0.000000
0.511768 0.021929 0.000000
0.730558 0.063822 0.000000
0.669202 0.093436 0.000000
0.310821 0.119989 0.000000
0.669233 0.053062 0.000000
0.254627 0.104104 0.000000
0.150000 -0.075000 0.000000
0.150000 -0.050000 0.000000
0.150000 -0.025000 0.000000
0.150000 0.000000 0.000000
0.520414 0.114291 0.000000
0.994045 0.023052 0.000000
0.894681 0.143855 0.000000
0.507315 0.073861 0.000000
0.957011 0.043208 0.000000
0.268532 0.109484 0.000000
0.988562 0.085169 0.000000
0.643895 0.087926 0.000000
0.999315 0.066234 0.000000
0.926430 0.121808 0.000000
0.924111 0.049426 0.000000
0.842771 0.031005 0.000000
0.887438 0.055549 0.000000
0.909834 0.064412 0.000000
0.870433 0.067287 0.000000
0.772358 0.095451 0.000000
0.770968 0.028228 0.000000
0.791309 0.102900 0.000000
0.791585 0.074683 0.000000
0.574717 0.084302 0.000000
0.175000 -0.075000 0.000000
0.175000 -0.050000 0.000000
0.175000 -0.025000 0.000000
0.175000 0.000000 0.000000
0.179909 0.084148 0.000000
0.866441 0.135264 0.000000
0.968946 0.140425 0.000000
0.985080 0.119160 0.000000
0.961895 0.115600 0.000000
0.363416 0.134065 0.000000
0.938806 0.022412 0.000000
0.482838 0.121844 0.000000
0.509215 0.041930 0.000000
0.967490 0.025488 0.000000
0.801096 0.145927 0.000000
0.894127 0.123408 0.000000
0.714735 0.143270 0.000000
0.965391 0.085211 0.000000
0.973210 0.062679 0.000000
0.584242 0.051390 0.000000
1.000765 0.042477 0.000000
0.698642 0.103269 0.000000
0.532993 0.143790 0.000000
0.735988 0.125834 0.000000
0.200000 -0.075000 0.000000
0.200000 -0.050000 0.000000
0.200000 -0.025000 0.000000
0.200000 0.000000 0.000000
0.614397 0.083637 0.000000
0.287930 0.121201 0.000000
0.514793 0.096864 0.000000
0.930839 0.145450 0.000000
0.491264 0.054500 0.000000
0.642286 0.103162 0.000000
0.754638 0.120398 0.000000
0.948000 0.132001 0.000000
0.696259 0.128802 0.000000
0.341290 0.121250 0.000000
0.992514 0.161841 0.000000
0.860422 0.045521 0.000000
0.069497 0.052940 0.000000
0.629272 0.049355 0.000000
0.840828 0.109469 0.000000
0.388447 0.133674 0.000000
0.864678 0.110648 0.000000
0.596199 0.127319 0.000000
0.941523 0.097610 0.000000
0.820060 0.073739 0.000000
0.225000 -0.075000 0.000000
0.225000 -0.050000 0.000000
0.225000 -0.025000 0.000000
0.225000 0.000000 0.000000
0.537840 0.159161 0.000000
0.931373 0.678480 0.000000
0.818492 0.120046 0.000000
0.301260 0.076094 0.000000
0.321679 0.074249 0.000000
0.021004 0.098479 0.000000
0.723076 0.108094 0.000000
1.001391 0.140610 0.000000
0.823984 0.143537 0.000000
0.435377 0.109857 0.000000
0.882004 0.170614 0.000000
0.280403 0.143538 0.000000
0.472288 0.038006 0.000000
0.688064 0.077479 0.000000
0.316203 0.150004 0.000000
0.544648 0.084103 0.000000
0.695365 0.033595 0.000000
0.076402 0.097180 0.000000
0.465864 0.190167 0.000000
0.489149 0.101172 0.000000
0.250000 -0.075000 0.000000
0.250000 -0.050000 0.000000
0.250000 -0.025000 0.000000
0.250000 0.000000 0.000000
0.918413 0.160460 0.000000
0.663608 0.131653 0.000000
0.584070 0.123497 0.000000
0.561431 0.122945 0.000000
0.424798 0.238656 0.000000
0.676205 0.116677 0.000000
0.519823 0.146233 0.000000
0.455651 0.079837 0.000000
0.444540 0.041173 0.000000
0.786598 0.123521 0.000000
0.410751 0.079682 0.000000
0.057500 0.151238 0.000000
0.399987 0.138900 0.000000
0.716969 0.021531 0.000000
0.561050 0.067707 0.000000
0.447976 0.124030 0.000000
0.548119 0.044920 0.000000
0.892026 0.094959 0.000000
0.090242 0.136537 0.000000
0.839511 0.142343 0.000000
0.275000 -0.075000 0.000000
0.275000 -0.050000 0.000000
0.275000 -0.025000 0.000000
0.275000 0.000000 0.000000
0.300000 -0.075000 0.000000
0.300000 -0.050000 0.000000
0.300000 -0.025000 0.000000
0.300000 0.000000 0.000000
0.325000 -0.075000 0.000000
0.325000 -0.050000 0.000000
0.325000 -0.025000 0.000000
0.325000 0.000000 0.000000
0.350000 -0.075000 0.000000
0.350000 -0.050000 0.000000
0.350000 -0.025000 0.000000
0.350000 0.000000 0.000000
0.375000 -0.075000 0.000000
0.375000 -0.050000 0.000000
0.375000 -0.025000 0.000000
0.375000 0.000000 0.000000
0.400000 -0.075000 0.000000
0.400000 -0.050000 0.000000
0.400000 -0.025000 0.000000
0.400000 0.000000 0.000000
0.425000 -0.075000 0.000000
0.425000 -0.050000 0.000000
0.425000 -0.025000 0.000000
0.425000 0.000000 0.000000
0.450000 -0.075000 0.000000
0.450000 -0.050000 0.000000
0.450000 -0.025000 0.000000
0.450000 0.000000 0.000000
0.475000 -0.075000 0.000000
0.475000 -0.050000 0.000000
0.475000 -0.025000 0.000000
0.475000 0.000000 0.000000
0.500000 -0.075000 0.000000
0.500000 -0.050000 0.000000
0.500000 -0.025000 0.000000
0.500000 0.000000 0.000000
0.525000 -0.075000 0.000000
0.525000 -0.050000 0.000000
0.525000 -0.025000 0.000000
0.525000 0.000000 0.000000
0.550000 -0.075000 0.000000
0.550000 -0.050000 0.000000
0.550000 -0.025000 0.000000
0.550000 0.000000 0.000000
0.575000 -0.075000 0.000000
0.575000 -0.050000 0.000000
0.575000 -0.025000 0.000000
0.575000 0.000000 0.000000
0.600000 -0.075000 0.000000
0.600000 -0.050000 0.000000
0.600000 -0.025000 0.000000
0.600000 0.000000 0.000000
0.625000 -0.075000 0.000000
0.625000 -0.050000 0.000000
0.625000 -0.025000 0.000000
0.625000 0.000000 0.000000
0.650000 -0.075000 0.000000
0.650000 -0.050000 0.000000
0.650000 -0.025000 0.000000
0.650000 0.000000 0.000000
0.675000 -0.075000 0.000000
0.675000 -0.050000 0.000000
0.675000 -0.025000 0.000000
0.675000 0.000000 0.000000
0.700000 -0.075000 0.000000
0.700000 -0.050000 0.000000
0.700000 -0.025000 0.000000
0.700000 0.000000 0.000000
0.725000 -0.075000 0.000000
0.725000 -0.050000 0.000000
0.725000 -0.025000 0.000000
0.725000 0.000000 0.000000
0.750000 -0.075000 0.000000
0.750000 -0.050000 0.000000
0.750000 -0.025000 0.000000
0.750000 0.000000 0.000000
0.775000 -0.075000 0.000000
0.775000 -0.050000 0.000000
0.775000 -0.025000 0.000000
0.775000 0.000000 0.000000
0.800000 -0.075000 0.000000
0.800000 -0.050000 0.000000
0.800000 -0.025000 0.000000
0.800000 0.000000 0.000000
0.825000 -0.075000 0.000000
0.825000 -0.050000 0.000000
0.825000 -0.025000 0.000000
0.825000 0.000000 0.000000
0.850000 -0.075000 0.000000
0.850000 -0.050000 0.000000
0.850000 -0.025000 0.000000
0.850000 0.000000 0.000000
0.875000 -0.075000 0.000000
0.875000 -0.050000 0.000000
0.875000 -0.025000 0.000000
0.875000 0.000000 0.000000
0.900000 -0.075000 0.000000
0.900000 -0.050000 0.000000
0.900000 -0.025000 0.000000
0.900000 0.000000 0.000000
0.925000 -0.075000 0.000000
0.925000 -0.050000 0.000000
0.925000 -0.025000 0.000000
0.925000 0.000000 0.000000
0.950000 -0.075000 0.000000
0.950000 -0.050000 0.000000
0.950000 -0.025000 0.000000
0.950000 0.000000 0.000000
0.975000 -0.075000 0.000000
0.975000 -0.050000 0.000000
0.975000 -0.025000 0.000000
0.975000 0.000000 0.000000
1.000000 -0.075000 0.000000
1.000000 -0.050000 0.000000
1.000000 -0.025000 0.000000
1.000000 0.000000 0.000000
1.025000 -0.075000 0.000000
1.025000 -0.050000 0.000000
1.025000 -0.025000 0.000000
1.025000 0.000000 0.000000
1.025000 0.025000 0.000000
1.025000 0.050000 0.000000
1.025000 0.075000 0.000000
1.025000 0.100000 0.000000
1.025000 0.125000 0.000000
1.025000 0.150000 0.000000
1.025000 0.175000 0.000000
1.025000 0.200000 0.000000
1.025000 0.225000 0.000000
1.025000 0.250000 0.000000
1.025000 0.275000 0.000000
1.025000 0.300000 0.000000
1.025000 0.325000 0.000000
1.025000 0.350000 0.000000
1.025000 0.375000 0.000000
1.025000 0.400000 0.000000
1.025000 0.425000 0.000000
1.025000 0.450000 0.000000
1.025000 0.475000 0.000000
1.025000 0.500000 0.000000
1.025000 0.525000 0.000000
1.025000 0.550000 0.000000
1.025000 0.575000 0.000000
1.025000 0.600000 0.000000
1.050000 -0.075000 0.000000
1.050000 -0.050000 0.000000
1.050000 -0.025000 0.000000
1.050000 0.000000 0.000000
1.050000 0.025000 0.000000
1.050000 0.050000 0.000000
1.050000 0.075000 0.000000
1.050000 0.100000 0.000000
1.050000 0.125000 0.000000
1.050000 0.150000 0.000000
1.050000 0.175000 0.000000
1.050000 0.200000 0.000000
1.050000 0.225000 0.000000
1.050000 0.250000 0.000000
1.050000 0.275000 0.000000
1.050000 0.300000 0.000000
1.050000 0.325000 0.000000
1.050000 0.350000 0.000000
1.050000 0.375000 0.000000
1.050000 0.400000 0.000000
1.050000 0.425000 0.000000
1.050000 0.450000 0.000000
1.050000 0.475000 0.000000
1.050000 0.500000 0.000000
1.050000 0.525000 0.000000
1.050000 0.550000 0.000000
1.050000 0.575000 0.000000
1.050000 0.600000 0.000000
1.075000 -0.075000 0.000000
1.075000 -0.050000 0.000000
1.075000 -0.025000 0.000000
1.075000 0.000000 0.000000
1.075000 0.025000 0.000000
1.075000 0.050000 0.000000
1.075000 0.075000 0.000000
1.075000 0.100000 0.000000
1.075000 0.125000 0.000000
1.075000 0.150000 0.000000
1.075000 0.175000 0.000000
1.075000 0.200000 0.000000
1.075000 0.225000 0.000000
1.075000 0.250000 0.000000
1.075000 0.275000 0.000000
1.075000 0.300000 0.000000
1.075000 0.325000 0.000000
1.075000 0.350000 0.000000
1.075000 0.375000 0.000000
1.075000 0.400000 0.000000
1.075000 0.425000 0.000000
1.075000 0.450000 0.000000
1.075000 0.475000 0.000000
1.075000 0.500000 0.000000
1.075000 0.525000 0.000000
1.075000 0.550000 0.000000
1.075000 0.575000 0.000000
1.075000 0.600000 0.000000
1.100000 -0.075000 0.000000
1.100000 -0.050000 0.000000
1.100000 -0.025000 0.000000
1.100000 0.000000 0.000000
1.100000 0.025000 0.000000
1.100000 0.050000 0.000000
1.100000 0.075000 0.000000
1.100000 0.100000 0.000000
1.100000 0.125000 0.000000
1.100000 0.150000 0.000000
1.100000 0.175000 0.000000
1.100000 0.200000 0.000000
1.100000 0.225000 0.000000
1.100000 0.250000 0.000000
1.100000 0.275000 0.000000
1.100000 0.300000 0.000000
1.100000 0.325000 0.000000
1.100000 0.350000 0.000000
1.100000 0.375000 0.000000
1.100000 0.400000 0.000000
1.100000 0.425000 0.000000
1.100000 0.450000 0.000000
1.100000 0.475000 0.000000
1.100000 0.500000 0.000000
1.100000 0.525000 0.000000
1.100000 0.550000 0.000000
1.100000 0.575000 0.000000
1.100000 0.600000 0.000000
</DataArray>
</Points>
<PointData>
<DataArray NumberOfComponents='1' type='Int32' Name='ParticleType' format='ascii'>
3
3
3
3
3
3
3
3
3
3
3
3
3
3
3
3
3
3
3
3
3
3
3
3
3
3
2
2
3
3
3
3
3
3
3
3
3
3
3
3
3
3
3
3
3
3
3
3
3
3
3
3
3
3
2
2
3
3
2
2
2
2
2
2
2
2
2
2
2
2
2
2
2
2
2
2
2
2
2
2
2
2
2
2
3
3
2
2
2
2
2
2
2
2
2
2
2
2
2
2
2
2
2
2
2
2
2
2
2
2
2
2
3
3
2
2
0
0
0
0
0
0
0
0
0
0
0
0
0
0
0
0
0
0
0
0
3
3
2
2
0
0
0
0
0
0
0
0
0
0
0
0
0
0
0
0
0
0
0
0
3
3
2
2
0
0
0
0
0
0
0
0
0
0
0
0
0
0
0
0
0
0
0
0
3
3
2
2
0
0
0
0
0
0
0
0
0
0
0
0
0
0
0
0
0
0
0
0
3
3
2
2
0
0
0
0
0
0
0
0
0
0
0
0
0
0
0
0
0
0
0
0
3
3
2
2
0
0
0
0
0
0
0
0
0
0
0
0
0
0
0
0
0
0
0
0
3
3
2
2
0
0
0
0
0
0
0
0
0
0
0
0
0
0
0
0
0
0
0
0
3
3
2
2
0
0
0
0
0
0
0
0
0
0
0
0
0
0
0
0
0
0
0
0
3
3
2
2
0
0
0
0
0
0
0
0
0
0
0
0
0
0
0
0
0
0
0
0
3
3
2
2
0
0
0
0
0
0
0
0
0
0
0
0
0
0
0
0
0
0
0
0
3
3
2
2
3
3
2
2
3
3
2
2
3
3
2
2
3
3
2
2
3
3
2
2
3
3
2
2
3
3
2
2
3
3
2
2
3
3
2
2
3
3
2
2
3
3
2
2
3
3
2
2
3
3
2
2
3
3
2
2
3
3
2
2
3
3
2
2
3
3
2
2
3
3
2
2
3
3
2
2
3
3
2
2
3
3
2
2
3
3
2
2
3
3
2
2
3
3
2
2
3
3
2
2
3
3
2
2
3
3
2
2
3
3
2
2
3
3
2
2
3
3
2
2
2
2
2
2
2
2
2
2
2
2
2
2
2
2
2
2
2
2
2
2
2
2
2
2
3
3
2
2
2
2
2
2
2
2
2
2
2
2
2
2
2
2
2
2
2
2
2
2
2
2
2
2
3
3
3
3
3
3
3
3
3
3
3
3
3
3
3
3
3
3
3
3
3
3
3
3
3
3
2
2
3
3
3
3
3
3
3
3
3
3
3
3
3
3
3
3
3
3
3
3
3
3
3
3
3
3
2
2
</DataArray>
<DataArray NumberOfComponents='1' type='Float32' Name='Velocity' format='ascii'>
0.000000
0.000000
0.000000
0.000000
0.000000
0.000000
0.000000
0.000000
0.000000
0.000000
0.000000
0.000000
0.000000
0.000000
0.000000
0.000000
0.000000
0.000000
0.000000
0.000000
0.000000
0.000000
0.000000
0.000000
0.000000
0.000000
0.000000
0.000000
0.000000
0.000000
0.000000
0.000000
0.000000
0.000000
0.000000
0.000000
0.000000
0.000000
0.000000
0.000000
0.000000
0.000000
0.000000
0.000000
0.000000
0.000000
0.000000
0.000000
0.000000
0.000000
0.000000
0.000000
0.000000
0.000000
0.000000
0.000000
0.000000
0.000000
0.000000
0.000000
0.000000
0.000000
0.000000
0.000000
0.000000
0.000000
0.000000
0.000000
0.000000
0.000000
0.000000
0.000000
0.000000
0.000000
0.000000
0.000000
0.000000
0.000000
0.000000
0.000000
0.000000
0.000000
0.000000
0.000000
0.000000
0.000000
0.000000
0.000000
0.000000
0.000000
0.000000
0.000000
0.000000
0.000000
0.000000
0.000000
0.000000
0.000000
0.000000
0.000000
0.000000
0.000000
0.000000
0.000000
0.000000
0.000000
0.000000
0.000000
0.000000
0.000000
0.000000
0.000000
0.000000
0.000000
0.000000
0.000000
0.332116
0.285772
0.982459
0.129881
0.604793
0.502393
0.770993
0.298046
0.273111
0.387881
0.379683
0.818066
0.113788
0.502101
1.009067
0.674955
0.222918
0.283247
0.329058
0.185143
0.000000
0.000000
0.000000
0.000000
0.690697
1.515296
1.063627
2.436387
2.062147
0.541677
1.285923
0.339940
0.762053
0.720211
1.687917
0.862749
0.432400
1.122113
1.064222
1.597936
0.490874
0.575442
0.127557
0.377724
0.000000
0.000000
0.000000
0.000000
0.705952
1.534090
0.113603
0.865640
0.686307
0.421395
0.585240
1.382040
0.809324
0.648815
0.676567
1.221520
0.287954
0.335141
0.768508
1.512175
0.586395
2.030992
0.470053
0.484553
0.000000
0.000000
0.000000
0.000000
0.683403
0.886885
1.128664
0.361838
0.513591
0.227101
0.602081
1.257684
0.614937
0.270193
0.578994
1.391101
0.706701
0.164156
0.754124
0.599077
0.305829
2.177585
0.541001
0.978500
0.000000
0.000000
0.000000
0.000000
0.661055
0.245498
0.275003
0.247304
0.653014
0.550364
1.749603
0.888537
0.073394
0.757389
0.193055
0.847419
0.327971
0.486248
0.119543
0.576807
1.083901
1.423751
0.246906
2.013899
0.000000
0.000000
0.000000
0.000000
1.555902
0.301141
1.580897
0.534437
0.271334
1.807506
0.212259
0.606162
0.112085
0.595502
0.574795
0.565584
0.434025
0.216409
0.649194
0.616728
0.358364
0.363676
0.453917
0.895888
0.000000
0.000000
0.000000
0.000000
1.886135
0.843765
0.403968
0.215837
0.267552
1.264450
0.137891
1.566112
0.581673
0.323998
0.590650
1.098630
0.883326
0.521150
0.020972
0.283508
0.230856
0.726598
1.473227
0.191527
0.000000
0.000000
0.000000
0.000000
1.350907
1.825992
1.230179
1.220258
0.298036
1.313662
0.656388
0.632235
1.112119
1.124789
0.407564
0.656237
0.247201
0.732891
0.309626
1.558606
0.720624
1.141449
0.271906
0.565967
0.000000
0.000000
0.000000
0.000000
1.175633
3.493402
1.281318
0.407015
0.844694
1.001999
0.759018
0.564577
0.971772
1.743664
0.936131
1.502029
0.839990
0.713644
1.553338
0.425507
0.198284
2.968743
0.677352
1.034067
0.000000
0.000000
0.000000
0.000000
1.185189
0.897313
1.290010
1.198182
4.122075
0.694921
1.260552
1.072399
0.794042
1.106303
1.200555
0.506760
1.819713
0.460823
0.410481
1.325083
0.771797
0.429491
2.513188
1.133317
0.000000
0.000000
0.000000
0.000000
0.000000
0.000000
0.000000
0.000000
0.000000
0.000000
0.000000
0.000000
0.000000
0.000000
0.000000
0.000000
0.000000
0.000000
0.000000
0.000000
0.000000
0.000000
0.000000
0.000000
0.000000
0.000000
0.000000
0.000000
0.000000
0.000000
0.000000
0.000000
0.000000
0.000000
0.000000
0.000000
0.000000
0.000000
0.000000
0.000000
0.000000
0.000000
0.000000
0.000000
0.000000
0.000000
0.000000
0.000000
0.000000
0.000000
0.000000
0.000000
0.000000
0.000000
0.000000
0.000000
0.000000
0.000000
0.000000
0.000000
0.000000
0.000000
0.000000
0.000000
0.000000
0.000000
0.000000
0.000000
0.000000
0.000000
0.000000
0.000000
0.000000
0.000000
0.000000
0.000000
0.000000
0.000000
0.000000
0.000000
0.000000
0.000000
0.000000
0.000000
0.000000
0.000000
0.000000
0.000000
0.000000
0.000000
0.000000
0.000000
0.000000
0.000000
0.000000
0.000000
0.000000
0.000000
0.000000
0.000000
0.000000
0.000000
0.000000
0.000000
0.000000
0.000000
0.000000
0.000000
0.000000
0.000000
0.000000
0.000000
0.000000
0.000000
0.000000
0.000000
0.000000
0.000000
0.000000
0.000000
0.000000
0.000000
0.000000
0.000000
0.000000
0.000000
0.000000
0.000000
0.000000
0.000000
0.000000
0.000000
0.000000
0.000000
0.000000
0.000000
0.000000
0.000000
0.000000
0.000000
0.000000
0.000000
0.000000
0.000000
0.000000
0.000000
0.000000
0.000000
0.000000
0.000000
0.000000
0.000000
0.000000
0.000000
0.000000
0.000000
0.000000
0.000000
0.000000
0.000000
0.000000
0.000000
0.000000
0.000000
0.000000
0.000000
0.000000
0.000000
0.000000
0.000000
0.000000
0.000000
0.000000
0.000000
0.000000
0.000000
0.000000
0.000000
0.000000
0.000000
0.000000
0.000000
0.000000
0.000000
0.000000
0.000000
0.000000
0.000000
0.000000
0.000000
0.000000
0.000000
0.000000
0.000000
0.000000
0.000000
0.000000
0.000000
0.000000
0.000000
0.000000
0.000000
0.000000
0.000000
0.000000
0.000000
0.000000
0.000000
0.000000
0.000000
0.000000
0.000000
0.000000
0.000000
0.000000
0.000000
0.000000
0.000000
0.000000
0.000000
0.000000
0.000000
0.000000
0.000000
0.000000
0.000000
0.000000
0.000000
0.000000
0.000000
0.000000
0.000000
</DataArray>
<DataArray NumberOfComponents='1' type='Float32' Name='pressure' format='ascii'>
0.000000
0.000000
0.000000
0.000000
0.000000
0.000000
0.000000
0.000000
0.000000
0.000000
0.000000
0.000000
0.000000
0.000000
0.000000
0.000000
0.000000
0.000000
0.000000
0.000000
0.000000
0.000000
0.000000
0.000000
0.000000
0.000000
0.000000
0.000000
0.000000
0.000000
0.000000
0.000000
0.000000
0.000000
0.000000
0.000000
0.000000
0.000000
0.000000
0.000000
0.000000
0.000000
0.000000
0.000000
0.000000
0.000000
0.000000
0.000000
0.000000
0.000000
0.000000
0.000000
0.000000
0.000000
0.000000
0.000000
0.000000
0.000000
0.000000
0.000000
86.330742
490.963806
0.000000
1437.053589
0.000000
0.000000
0.000000
0.000000
0.000000
0.000000
0.000000
0.000000
0.000000
0.000000
0.000000
0.000000
0.000000
0.000000
0.000000
0.000000
0.000000
0.000000
0.000000
0.000000
0.000000
0.000000
0.000000
0.000000
0.000000
0.000000
0.000000
0.000000
0.000000
0.000000
0.000000
0.000000
0.000000
0.000000
0.000000
0.000000
0.000000
0.000000
0.000000
0.000000
0.000000
0.000000
0.000000
0.000000
0.000000
0.000000
0.000000
0.000000
0.000000
0.000000
0.000000
0.000000
0.000000
0.000000
1396.073975
0.000000
279.036285
0.000000
2044.490845
0.000000
0.000000
0.000000
0.000000
0.000000
440.652008
0.000000
0.000000
0.000000
0.000000
0.000000
0.000000
643.956787
0.000000
0.000000
0.000000
0.000000
1173.214478
0.000000
0.000000
0.000000
0.000000
1404.227417
0.000000
1507.720215
15.305586
952.733826
0.000000
981.237976
0.000000
0.000000
0.000000
0.000000
256.648682
0.000000
355.285675
2264.746582
0.000000
0.000000
0.000000
0.000000
439.577637
0.000000
2072.021729
2803.799316
162.346436
2490.911377
1581.693604
0.000000
0.000000
1717.052612
1213.652832
0.000000
0.000000
690.161377
1601.640015
0.000000
0.000000
0.000000
0.000000
0.000000
0.000000
0.000000
1648.040161
768.249023
3679.608643
423.544678
0.000000
1355.295776
0.000000
1994.680054
808.330261
0.000000
1165.802856
1542.196411
2059.337646
603.635010
1918.413452
0.000000
0.000000
695.906921
1774.476440
0.000000
0.000000
0.000000
0.000000
0.000000
267.614471
0.000000
455.737000
1190.197754
1822.896118
2184.986816
0.000000
2444.933594
0.000000
0.000000
2511.419189
1573.614502
2241.677979
0.000000
2468.011963
1702.203735
1055.194214
2335.445557
0.000000
0.000000
265.610748
0.000000
0.000000
0.000000
1876.267334
1215.911377
0.000000
2760.358887
0.000000
0.000000
2716.534180
830.458313
2145.072021
3861.987549
2271.591309
988.614258
1591.316284
1841.484863
1755.077148
1653.758057
1906.432861
1175.787476
1422.126221
1269.280396
0.000000
1874.274414
0.000000
0.000000
242.781708
356.909790
0.000000
78.527359
0.000000
537.914673
3947.777344
0.000000
1653.332397
0.000000
161.035446
1134.536621
0.000000
0.000000
0.000000
1452.340210
1033.416870
0.000000
2921.935547
2560.747559
0.000000
0.000000
0.000000
0.000000
1709.766724
1625.348877
0.000000
0.000000
0.000000
0.000000
1165.710449
0.000000
0.000000
1921.527100
0.000000
0.000000
0.000000
2033.534058
0.000000
0.000000
1850.454468
1154.233643
1876.386108
0.000000
772.820312
2248.741699
0.000000
0.000000
2344.992676
2730.257324
0.000000
0.000000
0.000000
0.000000
0.000000
0.000000
720.813965
0.000000
0.000000
0.000000
0.000000
0.000000
0.000000
3.938945
0.000000
109.182167
0.000000
0.000000
0.000000
0.000000
0.000000
0.000000
927.867432
703.417175
0.000000
0.000000
0.000000
0.000000
0.000000
0.000000
0.000000
0.000000
167.882904
0.000000
0.000000
0.000000
0.000000
3222.375244
861.736145
0.000000
305.909637
475.115143
0.000000
0.000000
0.000000
0.000000
1636.555176
1968.117188
0.000000
0.000000
368.391510
460.776520
0.000000
0.000000
1282.008179
878.771118
0.000000
0.000000
1394.068359
2439.926270
0.000000
0.000000
370.890533
421.020081
0.000000
0.000000
382.246124
0.000000
0.000000
0.000000
1773.402100
1127.462891
0.000000
0.000000
2087.969238
2515.026611
0.000000
0.000000
2004.497314
0.000000
0.000000
0.000000
2336.476562
0.000000
0.000000
0.000000
2701.749268
2775.062012
0.000000
0.000000
2903.676025
3456.824219
0.000000
0.000000
3353.961182
2380.859863
0.000000
0.000000
2839.119141
2306.606934
0.000000
0.000000
4432.402344
4704.905273
0.000000
0.000000
2933.968750
2193.009766
0.000000
0.000000
3832.858154
2909.141602
0.000000
0.000000
2952.348145
998.283997
0.000000
0.000000
3728.898438
3246.204102
0.000000
0.000000
2812.968018
2489.264404
0.000000
0.000000
1666.284302
1270.876343
0.000000
0.000000
2613.800781
2720.673096
0.000000
0.000000
1539.770142
811.638550
0.000000
0.000000
2094.003662
907.198486
0.000000
0.000000
2862.077393
2569.167969
0.000000
0.000000
862.671509
0.000000
0.000000
0.000000
2064.185303
1647.638184
0.000000
0.000000
2751.160400
3176.169189
0.000000
0.000000
2442.197998
2657.853760
0.000000
0.000000
2859.806885
3068.344238
0.000000
0.000000
1931.092896
1148.772827
445.150909
1588.489014
735.291443
3970.518066
1346.775269
0.000000
0.000000
0.000000
0.000000
0.000000
0.000000
0.000000
0.000000
0.000000
0.000000
0.000000
0.000000
0.000000
0.000000
0.000000
0.000000
0.000000
0.000000
0.000000
0.000000
0.000000
1616.575562
1412.948853
625.037842
1546.360840
1482.420410
3505.305420
2298.909668
800.430481
0.000000
0.000000
0.000000
0.000000
0.000000
0.000000
0.000000
0.000000
0.000000
0.000000
0.000000
0.000000
0.000000
0.000000
0.000000
0.000000
0.000000
0.000000
0.000000
0.000000
0.000000
0.000000
0.000000
0.000000
0.000000
0.000000
0.000000
0.000000
0.000000
0.000000
0.000000
0.000000
0.000000
0.000000
0.000000
0.000000
0.000000
0.000000
0.000000
0.000000
0.000000
0.000000
0.000000
0.000000
0.000000
0.000000
0.000000
0.000000
0.000000
0.000000
0.000000
0.000000
0.000000
0.000000
0.000000
0.000000
0.000000
0.000000
0.000000
0.000000
0.000000
0.000000
0.000000
0.000000
0.000000
0.000000
0.000000
0.000000
0.000000
0.000000
0.000000
0.000000
0.000000
0.000000
</DataArray>
</PointData>
<Cells>
<DataArray type='Int32' Name='connectivity' format='ascii'>
0
1
2
3
4
5
6
7
8
9
10
11
12
13
14
15
16
17
18
19
20
21
22
23
24
25
26
27
28
29
30
31
32
33
34
35
36
37
38
39
40
41
42
43
44
45
46
47
48
49
50
51
52
53
54
55
56
57
58
59
60
61
62
63
64
65
66
67
68
69
70
71
72
73
74
75
76
77
78
79
80
81
82
83
84
85
86
87
88
89
90
91
92
93
94
95
96
97
98
99
100
101
102
103
104
105
106
107
108
109
110
111
112
113
114
115
116
117
118
119
120
121
122
123
124
125
126
127
128
129
130
131
132
133
134
135
136
137
138
139
140
141
142
143
144
145
146
147
148
149
150
151
152
153
154
155
156
157
158
159
160
161
162
163
164
165
166
167
168
169
170
171
172
173
174
175
176
177
178
179
180
181
182
183
184
185
186
187
188
189
190
191
192
193
194
195
196
197
198
199
200
201
202
203
204
205
206
207
208
209
210
211
212
213
214
215
216
217
218
219
220
221
222
223
224
225
226
227
228
229
230
231
232
233
234
235
236
237
238
239
240
241
242
243
244
245
246
247
248
249
250
251
252
253
254
255
256
257
258
259
260
261
262
263
264
265
266
267
268
269
270
271
272
273
274
275
276
277
278
279
280
281
282
283
284
285
286
287
288
289
290
291
292
293
294
295
296
297
298
299
300
301
302
303
304
305
306
307
308
309
310
311
312
313
314
315
316
317