<?xml version='1.0' encoding='UTF-8'?>
<VTKFile xmlns='VTK' byte_order='LittleEndian' version='0.1' type='UnstructuredGrid'>
<UnstructuredGrid>
<Piece NumberOfCells='584' NumberOfPoints='584'>
<Points>
<DataArray NumberOfComponents='3' type='Float32' Name='Position' format='ascii'>
-0.075000 -0.075000 0.000000
-0.075000 -0.050000 0.000000
-0.075000 -0.025000 0.000000
-0.075000 0.000000 0.000000
-0.075000 0.025000 0.000000
-0.075000 0.050000 0.000000
-0.075000 0.075000 0.000000
-0.075000 0.100000 0.000000
-0.075000 0.125000 0.000000
-0.075000 0.150000 0.000000
-0.075000 0.175000 0.000000
-0.075000 0.200000 0.000000
-0.075000 0.225000 0.000000
-0.075000 0.250000 0.000000
-0.075000 0.275000 0.000000
-0.075000 0.300000 0.000000
-0.075000 0.325000 0.000000
-0.075000 0.350000 0.000000
-0.075000 0.375000 0.000000
-0.075000 0.400000 0.000000
-0.075000 0.425000 0.000000
-0.075000 0.450000 0.000000
-0.075000 0.475000 0.000000
-0.075000 0.500000 0.000000
-0.075000 0.525000 0.000000
-0.075000 0.550000 0.000000
-0.075000 0.575000 0.000000
-0.075000 0.600000 0.000000
-0.050000 -0.075000 0.000000
-0.050000 -0.050000 0.000000
-0.050000 -0.025000 0.000000
-0.050000 0.000000 0.000000
-0.050000 0.025000 0.000000
-0.050000 0.050000 0.000000
-0.050000 0.075000 0.000000
-0.050000 0.100000 0.000000
-0.050000 0.125000 0.000000
-0.050000 0.150000 0.000000
-0.050000 0.175000 0.000000
-0.050000 0.200000 0.000000
-0.050000 0.225000 0.000000
-0.050000 0.250000 0.000000
-0.050000 0.275000 0.000000
-0.050000 0.300000 0.000000
-0.050000 0.325000 0.000000
-0.050000 0.350000 0.000000
-0.050000 0.375000 0.000000
-0.050000 0.400000 0.000000
-0.050000 0.425000 0.000000
-0.050000 0.450000 0.000000
-0.050000 0.475000 0.000000
-0.050000 0.500000 0.000000
-0.050000 0.525000 0.000000
-0.050000 0.550000 0.000000
-0.050000 0.575000 0.000000
-0.050000 0.600000 0.000000
-0.025000 -0.075000 0.000000
-0.025000 -0.050000 0.000000
-0.025000 -0.025000 0.000000
-0.025000 0.000000 0.000000
-0.025000 0.025000 0.000000
-0.025000 0.050000 0.000000
-0.025000 0.075000 0.000000
-0.025000 0.100000 0.000000
-0.025000 0.125000 0.000000
-0.025000 0.150000 0.000000
-0.025000 0.175000 0.000000
-0.025000 0.200000 0.000000
-0.025000 0.225000 0.000000
-0.025000 0.250000 0.000000
-0.025000 0.275000 0.000000
-0.025000 0.300000 0.000000
-0.025000 0.325000 0.000000
-0.025000 0.350000 0.000000
-0.025000 0.375000 0.000000
-0.025000 0.400000 0.000000
-0.025000 0.425000 0.000000
-0.025000 0.450000 0.000000
-0.025000 0.475000 0.000000
-0.025000 0.500000 0.000000
-0.025000 0.525000 0.000000
-0.025000 0.550000 0.000000
-0.025000 0.575000 0.000000
-0.025000 0.600000 0.000000
0.000000 -0.075000 0.000000
0.000000 -0.050000 0.000000
0.000000 -0.025000 0.000000
0.000000 0.000000 0.000000
0.000000 0.025000 0.000000
0.000000 0.050000 0.000000
0.000000 0.075000 0.000000
0.000000 0.100000 0.000000
0.000000 0.125000 0.000000
0.000000 0.150000 0.000000
0.000000 0.175000 0.000000
0.000000 0.200000 0.000000
0.000000 0.225000 0.000000
0.000000 0.250000 0.000000
0.000000 0.275000 0.000000
0.000000 0.300000 0.000000
0.000000 0.325000 0.000000
0.000000 0.350000 0.000000
0.000000 0.375000 0.000000
0.000000 0.400000 0.000000
0.000000 0.425000 0.000000
0.000000 0.450000 0.000000
0.000000 0.475000 0.000000
0.000000 0.500000 0.000000
0.000000 0.525000 0.000000
0.000000 0.550000 0.000000
0.000000 0.575000 0.000000
0.000000 0.600000 0.000000
0.025000 -0.075000 0.000000
0.025000 -0.050000 0.000000
0.025000 -0.025000 0.000000
0.025000 0.000000 0.000000
0.213896 0.077713 0.000000
0.239816 0.032342 0.000000
0.165118 0.050748 0.000000
0.185113 0.020160 0.000000
0.308126 0.025840 0.000000
0.084237 0.051780 0.000000
0.388094 0.022684 0.000000
0.262492 0.032486 0.000000
0.224478 0.021127 0.000000
0.125819 0.108655 0.000000
0.282285 0.024090 0.000000
0.145533 0.118510 0.000000
0.163516 0.028806 0.000000
0.042647 0.036192 0.000000
0.110931 0.059220 0.000000
0.019767 0.023158 0.000000
0.127900 0.060349 0.000000
0.104647 0.028150 0.000000
0.102106 0.097541 0.000000
0.129329 0.023126 0.000000
0.050000 -0.075000 0.000000
0.050000 -0.050000 0.000000
0.050000 -0.025000 0.000000
0.050000 0.000000 0.000000
0.304415 0.092137 0.000000
0.305712 0.246128 0.000000
0.341833 0.190195 0.000000
0.030640 0.048518 0.000000
0.051266 0.126965 0.000000
0.558758 0.050376 0.000000
0.269304 0.099303 0.000000
0.692185 0.049621 0.000000
0.309615 0.069759 0.000000
0.339198 0.108992 0.000000
0.093672 0.126466 0.000000
0.353483 0.046821 0.000000
0.097431 0.079129 0.000000
0.307078 0.124297 0.000000
0.159376 0.071103 0.000000
0.065860 0.099179 0.000000
0.203694 0.042159 0.000000
0.299820 0.045565 0.000000
0.146952 0.095284 0.000000
0.138986 0.041994 0.000000
0.075000 -0.075000 0.000000
0.075000 -0.050000 0.000000
0.075000 -0.025000 0.000000
0.075000 0.000000 0.000000
0.294232 0.112881 0.000000
0.216075 0.116590 0.000000
0.500398 0.041838 0.000000
0.416321 0.024811 0.000000
0.689020 0.097667 0.000000
0.752693 0.028519 0.000000
0.767147 0.044664 0.000000
0.059144 0.139111 0.000000
0.637347 0.083087 0.000000
0.738595 0.061990 0.000000
0.533125 0.020245 0.000000
0.301417 0.159405 0.000000
0.267422 0.054167 0.000000
0.339413 0.083869 0.000000
0.334334 0.024724 0.000000
0.183459 0.111463 0.000000
0.290295 0.074964 0.000000
0.020974 0.107566 0.000000
0.237958 0.074795 0.000000
0.222551 0.058055 0.000000
0.100000 -0.075000 0.000000
0.100000 -0.050000 0.000000
0.100000 -0.025000 0.000000
0.100000 0.000000 0.000000
0.597763 0.027110 0.000000
0.517348 0.055989 0.000000
0.616393 0.045800 0.000000
0.870294 0.024078 0.000000
0.326990 0.050066 0.000000
0.839888 0.021780 0.000000
0.783867 0.097741 0.000000
0.401010 0.043365 0.000000
0.779495 0.026113 0.000000
0.800979 0.054878 0.000000
0.567189 0.023047 0.000000
0.520298 0.089465 0.000000
0.702236 0.072097 0.000000
0.720502 0.044796 0.000000
0.366495 0.131429 0.000000
0.359109 0.024639 0.000000
0.645424 0.028511 0.000000
0.462704 0.121028 0.000000
0.476954 0.075462 0.000000
0.351470 0.068927 0.000000
0.125000 -0.075000 0.000000
0.125000 -0.050000 0.000000
0.125000 -0.025000 0.000000
0.125000 0.000000 0.000000
0.803112 0.087303 0.000000
0.873115 0.096440 0.000000
0.994538 0.110224 0.000000
0.900809 0.024406 0.000000
0.796719 0.160347 0.000000
0.702849 0.028836 0.000000
0.443055 0.154619 0.000000
0.709965 0.167071 0.000000
0.906574 0.069714 0.000000
0.815521 0.068375 0.000000
0.936530 0.077895 0.000000
0.707428 0.117552 0.000000
0.620030 0.022977 0.000000
0.652376 0.060266 0.000000
0.498070 0.023909 0.000000
0.678074 0.070134 0.000000
0.570098 0.096005 0.000000
0.217526 0.096252 0.000000
0.626912 0.061470 0.000000
0.137876 0.144043 0.000000
0.150000 -0.075000 0.000000
0.150000 -0.050000 0.000000
0.150000 -0.025000 0.000000
0.150000 0.000000 0.000000
0.410425 0.091482 0.000000
0.978661 0.020594 0.000000
0.821940 0.116184 0.000000
0.466329 0.064935 0.000000
0.942401 0.056969 0.000000
0.190599 0.054648 0.000000
0.990200 0.080617 0.000000
0.585790 0.063024 0.000000
1.003404 0.065966 0.000000
0.913157 0.101897 0.000000
0.906349 0.044759 0.000000
0.802590 0.021764 0.000000
0.877748 0.043457 0.000000
0.890946 0.067560 0.000000
0.843857 0.049440 0.000000
0.724854 0.080594 0.000000
0.729837 0.022569 0.000000
0.761760 0.095607 0.000000
0.756604 0.069740 0.000000
0.495760 0.109450 0.000000
0.175000 -0.075000 0.000000
0.175000 -0.050000 0.000000
0.175000 -0.025000 0.000000
0.175000 0.000000 0.000000
0.039775 0.103405 0.000000
0.805487 0.145237 0.000000
0.978499 0.147461 0.000000
0.974423 0.123130 0.000000
0.969444 0.075639 0.000000
0.230825 0.136507 0.000000
0.928267 0.025491 0.000000
0.419531 0.058127 0.000000
0.467879 0.024524 0.000000
0.946261 0.027439 0.000000
0.742971 0.140706 0.000000
0.836680 0.102953 0.000000
0.666936 0.106447 0.000000
0.961218 0.049832 0.000000
0.985323 0.045370 0.000000
0.534149 0.041590 0.000000
1.001602 0.029845 0.000000
0.625605 0.115303 0.000000
0.426909 0.168267 0.000000
0.661929 0.150969 0.000000
0.200000 -0.075000 0.000000
0.200000 -0.050000 0.000000
0.200000 -0.025000 0.000000
0.200000 0.000000 0.000000
0.554815 0.086077 0.000000
0.166437 0.091920 0.000000
0.445227 0.088604 0.000000
0.926192 0.099718 0.000000
0.463074 0.044164 0.000000
0.553764 0.108968 0.000000
0.715529 0.100433 0.000000
0.967492 0.107512 0.000000
0.608902 0.151910 0.000000
0.225258 0.173722 0.000000
0.951029 0.150183 0.000000
0.826395 0.038396 0.000000
0.081808 0.018939 0.000000
0.578130 0.045547 0.000000
0.807106 0.113630 0.000000
0.249723 0.123567 0.000000
0.843824 0.078478 0.000000
0.555874 0.152204 0.000000
0.947511 0.098003 0.000000
0.782640 0.065894 0.000000
0.225000 -0.075000 0.000000
0.225000 -0.050000 0.000000
0.225000 -0.025000 0.000000
0.225000 0.000000 0.000000
0.459237 0.170714 0.000000
0.925984 0.367308 0.000000
0.735923 0.117328 0.000000
0.260244 0.070352 0.000000
0.244083 0.108217 0.000000
0.021734 0.128158 0.000000
0.658867 0.092179 0.000000
0.999227 0.136998 0.000000
0.759910 0.140600 0.000000
0.320137 0.134384 0.000000
0.816875 0.152392 0.000000
0.163609 0.121152 0.000000
0.441713 0.024715 0.000000
0.600198 0.087443 0.000000
0.195608 0.122712 0.000000
0.482522 0.103215 0.000000
0.663882 0.041365 0.000000
0.060660 0.042890 0.000000
0.418453 0.184655 0.000000
0.436174 0.052710 0.000000
0.250000 -0.075000 0.000000
0.250000 -0.050000 0.000000
0.250000 -0.025000 0.000000
0.250000 0.000000 0.000000
0.855450 0.097765 0.000000
0.593258 0.102865 0.000000
0.507542 0.170918 0.000000
0.503708 0.145193 0.000000
0.404885 0.103110 0.000000
0.619875 0.097649 0.000000
0.402633 0.159731 0.000000
0.382480 0.075990 0.000000
0.379316 0.050515 0.000000
0.716645 0.149170 0.000000
0.361180 0.098078 0.000000
0.054227 0.171492 0.000000
0.277323 0.139920 0.000000
0.676961 0.021379 0.000000
0.536522 0.074290 0.000000
0.424827 0.108616 0.000000
0.505445 0.083122 0.000000
0.861657 0.062783 0.000000
0.071483 0.060526 0.000000
0.759560 0.114709 0.000000
0.275000 -0.075000 0.000000
0.275000 -0.050000 0.000000
0.275000 -0.025000 0.000000
0.275000 0.000000 0.000000
0.300000 -0.075000 0.000000
0.300000 -0.050000 0.000000
0.300000 -0.025000 0.000000
0.300000 0.000000 0.000000
0.325000 -0.075000 0.000000
0.325000 -0.050000 0.000000
0.325000 -0.025000 0.000000
0.325000 0.000000 0.000000
0.350000 -0.075000 0.000000
0.350000 -0.050000 0.000000
0.350000 -0.025000 0.000000
0.350000 0.000000 0.000000
0.375000 -0.075000 0.000000
0.375000 -0.050000 0.000000
0.375000 -0.025000 0.000000
0.375000 0.000000 0.000000
0.400000 -0.075000 0.000000
0.400000 -0.050000 0.000000
0.400000 -0.025000 0.000000
0.400000 0.000000 0.000000
0.425000 -0.075000 0.000000
0.425000 -0.050000 0.000000
0.425000 -0.025000 0.000000
0.425000 0.000000 0.000000
0.450000 -0.075000 0.000000
0.450000 -0.050000 0.000000
0.450000 -0.025000 0.000000
0.450000 0.000000 0.000000
0.475000 -0.075000 0.000000
0.475000 -0.050000 0.000000
0.475000 -0.025000 0.000000
0.475000 0.000000 0.000000
0.500000 -0.075000 0.000000
0.500000 -0.050000 0.000000
0.500000 -0.025000 0.000000
0.500000 0.000000 0.000000
0.525000 -0.075000 0.000000
0.525000 -0.050000 0.000000
0.525000 -0.025000 0.000000
0.525000 0.000000 0.000000
0.550000 -0.075000 0.000000
0.550000 -0.050000 0.000000
0.550000 -0.025000 0.000000
0.550000 0.000000 0.000000
0.575000 -0.075000 0.000000
0.575000 -0.050000 0.000000
0.575000 -0.025000 0.000000
0.575000 0.000000 0.000000
0.600000 -0.075000 0.000000
0.600000 -0.050000 0.000000
0.600000 -0.025000 0.000000
0.600000 0.000000 0.000000
0.625000 -0.075000 0.000000
0.625000 -0.050000 0.000000
0.625000 -0.025000 0.000000
0.625000 0.000000 0.000000
0.650000 -0.075000 0.000000
0.650000 -0.050000 0.000000
0.650000 -0.025000 0.000000
0.650000 0.000000 0.000000
0.675000 -0.075000 0.000000
0.675000 -0.050000 0.000000
0.675000 -0.025000 0.000000
0.675000 0.000000 0.000000
0.700000 -0.075000 0.000000
0.700000 -0.050000 0.000000
0.700000 -0.025000 0.000000
0.700000 0.000000 0.000000
0.725000 -0.075000 0.000000
0.725000 -0.050000 0.000000
0.725000 -0.025000 0.000000
0.725000 0.000000 0.000000
0.750000 -0.075000 0.000000
0.750000 -0.050000 0.000000
0.750000 -0.025000 0.000000
0.750000 0.000000 0.000000
0.775000 -0.075000 0.000000
0.775000 -0.050000 0.000000
0.775000 -0.025000 0.000000
0.775000 0.000000 0.000000
0.800000 -0.075000 0.000000
0.800000 -0.050000 0.000000
0.800000 -0.025000 0.000000
0.800000 0.000000 0.000000
0.825000 -0.075000 0.000000
0.825000 -0.050000 0.000000
0.825000 -0.025000 0.000000
0.825000 0.000000 0.000000
0.850000 -0.075000 0.000000
0.850000 -0.050000 0.000000
0.850000 -0.025000 0.000000
0.850000 0.000000 0.000000
0.875000 -0.075000 0.000000
0.875000 -0.050000 0.000000
0.875000 -0.025000 0.000000
0.875000 0.000000 0.000000
0.900000 -0.075000 0.000000
0.900000 -0.050000 0.000000
0.900000 -0.025000 0.000000
0.900000 0.000000 0.000000
0.925000 -0.075000 0.000000
0.925000 -0.050000 0.000000
0.925000 -0.025000 0.000000
0.925000 0.000000 0.000000
0.950000 -0.075000 0.000000
0.950000 -0.050000 0.000000
0.950000 -0.025000 0.000000
0.950000 0.000000 0.000000
0.975000 -0.075000 0.000000
0.975000 -0.050000 0.000000
0.975000 -0.025000 0.000000
0.975000 0.000000 0.000000
1.000000 -0.075000 0.000000
1.000000 -0.050000 0.000000
1.000000 -0.025000 0.000000
1.000000 0.000000 0.000000
1.025000 -0.075000 0.000000
1.025000 -0.050000 0.000000
1.025000 -0.025000 0.000000
1.025000 0.000000 0.000000
1.025000 0.025000 0.000000
1.025000 0.050000 0.000000
1.025000 0.075000 0.000000
1.025000 0.100000 0.000000
1.025000 0.125000 0.000000
1.025000 0.150000 0.000000
1.025000 0.175000 0.000000
1.025000 0.200000 0.000000
1.025000 0.225000 0.000000
1.025000 0.250000 0.000000
1.025000 0.275000 0.000000
1.025000 0.300000 0.000000
1.025000 0.325000 0.000000
1.025000 0.350000 0.000000
1.025000 0.375000 0.000000
1.025000 0.400000 0.000000
1.025000 0.425000 0.000000
1.025000 0.450000 0.000000
1.025000 0.475000 0.000000
1.025000 0.500000 0.000000
1.025000 0.525000 0.000000
1.025000 0.550000 0.000000
1.025000 0.575000 0.000000
1.025000 0.600000 0.000000
1.050000 -0.075000 0.000000
1.050000 -0.050000 0.000000
1.050000 -0.025000 0.000000
1.050000 0.000000 0.000000
1.050000 0.025000 0.000000
1.050000 0.050000 0.000000
1.050000 0.075000 0.000000
1.050000 0.100000 0.000000
1.050000 0.125000 0.000000
1.050000 0.150000 0.000000
1.050000 0.175000 0.000000
1.050000 0.200000 0.000000
1.050000 0.225000 0.000000
1.050000 0.250000 0.000000
1.050000 0.275000 0.000000
1.050000 0.300000 0.000000
1.050000 0.325000 0.000000
1.050000 0.350000 0.000000
1.050000 0.375000 0.000000
1.050000 0.400000 0.000000
1.050000 0.425000 0.000000
1.050000 0.450000 0.000000
1.050000 0.475000 0.000000
1.050000 0.500000 0.000000
1.050000 0.525000 0.000000
1.050000 0.550000 0.000000
1.050000 0.575000 0.000000
1.050000 0.600000 0.000000
1.075000 -0.075000 0.000000
1.075000 -0.050000 0.000000
1.075000 -0.025000 0.000000
1.075000 0.000000 0.000000
1.075000 0.025000 0.000000
1.075000 0.050000 0.000000
1.075000 0.075000 0.000000
1.075000 0.100000 0.000000
1.075000 0.125000 0.000000
1.075000 0.150000 0.000000
1.075000 0.175000 0.000000
1.075000 0.200000 0.000000
1.075000 0.225000 0.000000
1.075000 0.250000 0.000000
1.075000 0.275000 0.000000
1.075000 0.300000 0.000000
1.075000 0.325000 0.000000
1.075000 0.350000 0.000000
1.075000 0.375000 0.000000
1.075000 0.400000 0.000000
1.075000 0.425000 0.000000
1.075000 0.450000 0.000000
1.075000 0.475000 0.000000
1.075000 0.500000 0.000000
1.075000 0.525000 0.000000
1.075000 0.550000 0.000000
1.075000 0.575000 0.000000
1.075000 0.600000 0.000000
1.100000 -0.075000 0.000000
1.100000 -0.050000 0.000000
1.100000 -0.025000 0.000000
1.100000 0.000000 0.000000
1.100000 0.025000 0.000000
1.100000 0.050000 0.000000
1.100000 0.075000 0.000000
1.100000 0.100000 0.000000
1.100000 0.125000 0.000000
1.100000 0.150000 0.000000
1.100000 0.175000 0.000000
1.100000 0.200000 0.000000
1.100000 0.225000 0.000000
1.100000 0.250000 0.000000
1.100000 0.275000 0.000000
1.100000 0.300000 0.000000
1.100000 0.325000 0.000000
1.100000 0.350000 0.000000
1.100000 0.375000 0.000000
1.100000 0.400000 0.000000
1.100000 0.425000 0.000000
1.100000 0.450000 0.000000
1.100000 0.475000 0.000000
1.100000 0.500000 0.000000
1.100000 0.525000 0.000000
1.100000 0.550000 0.000000
1.100000 0.575000 0.000000
1.100000 0.600000 0.000000
</DataArray>
</Points>
<PointData>
<DataArray NumberOfComponents='1' type='Int32' Name='ParticleType' format='ascii'>
3
3
3
3
3
3
3
3
3
3
3
3
3
3
3
3
3
3
3
3
3
3
3
3
3
3
2
2
3
3
3
3
3
3
3
3
3
3
3
3
3
3
3
3
3
3
3
3
3
3
3
3
3
3
2
2
3
3
2
2
2
2
2
2
2
2
2
2
2
2
2
2
2
2
2
2
2
2
2
2
2
2
2
2
3
3
2
2
2
2
2
2
2
2
2
2
2
2
2
2
2
2
2
2
2
2
2
2
2
2
2
2
3
3
2
2
0
0
0
0
0
0
0
0
0
0
0
0
0
0
0
0
0
0
0
0
3
3
2
2
0
0
0
0
0
0
0
0
0
0
0
0
0
0
0
0
0
0
0
0
3
3
2
2
0
0
0
0
0
0
0
0
0
0
0
0
0
0
0
0
0
0
0
0
3
3
2
2
0
0
0
0
0
0
0
0
0
0
0
0
0
0
0
0
0
0
0
0
3
3
2
2
0
0
0
0
0
0
0
0
0
0
0
0
0
0
0
0
0
0
0
0
3
3
2
2
0
0
0
0
0
0
0
0
0
0
0
0
0
0
0
0
0
0
0
0
3
3
2
2
0
0
0
0
0
0
0
0
0
0
0
0
0
0
0
0
0
0
0
0
3
3
2
2
0
0
0
0
0
0
0
0
0
0
0
0
0
0
0
0
0
0
0
0
3
3
2
2
0
0
0
0
0
0
0
0
0
0
0
0
0
0
0
0
0
0
0
0
3
3
2
2
0
0
0
0
0
0
0
0
0
0
0
0
0
0
0
0
0
0
0
0
3
3
2
2
3
3
2
2
3
3
2
2
3
3
2
2
3
3
2
2
3
3
2
2
3
3
2
2
3
3
2
2
3
3
2
2
3
3
2
2
3
3
2
2
3
3
2
2
3
3
2
2
3
3
2
2
3
3
2
2
3
3
2
2
3
3
2
2
3
3
2
2
3
3
2
2
3
3
2
2
3
3
2
2
3
3
2
2
3
3
2
2
3
3
2
2
3
3
2
2
3
3
2
2
3
3
2
2
3
3
2
2
3
3
2
2
3
3
2
2
3
3
2
2
2
2
2
2
2
2
2
2
2
2
2
2
2
2
2
2
2
2
2
2
2
2
2
2
3
3
2
2
2
2
2
2
2
2
2
2
2
2
2
2
2
2
2
2
2
2
2
2
2
2
2
2
3
3
3
3
3
3
3
3
3
3
3
3
3
3
3
3
3
3
3
3
3
3
3
3
3
3
2
2
3
3
3
3
3
3
3
3
3
3
3
3
3
3
3
3
3
3
3
3
3
3
3
3
3
3
2
2
</DataArray>
<DataArray NumberOfComponents='1' type='Float32' Name='Velocity' format='ascii'>
0.000000
0.000000
0.000000
0.000000
0.000000
0.000000
0.000000
0.000000
0.000000
0.000000
0.000000
0.000000
0.000000
0.000000
0.000000
0.000000
0.000000
0.000000
0.000000
0.000000
0.000000
0.000000
0.000000
0.000000
0.000000
0.000000
0.000000
0.000000
0.000000
0.000000
0.000000
0.000000
0.000000
0.000000
0.000000
0.000000
0.000000
0.000000
0.000000
0.000000
0.000000
0.000000
0.000000
0.000000
0.000000
0.000000
0.000000
0.000000
0.000000
0.000000
0.000000
0.000000
0.000000
0.000000
0.000000
0.000000
0.000000
0.000000
0.000000
0.000000
0.000000
0.000000
0.000000
0.000000
0.000000
0.000000
0.000000
0.000000
0.000000
0.000000
0.000000
0.000000
0.000000
0.000000
0.000000
0.000000
0.000000
0.000000
0.000000
0.000000
0.000000
0.000000
0.000000
0.000000
0.000000
0.000000
0.000000
0.000000
0.000000
0.000000
0.000000
0.000000
0.000000
0.000000
0.000000
0.000000
0.000000
0.000000
0.000000
0.000000
0.000000
0.000000
0.000000
0.000000
0.000000
0.000000
0.000000
0.000000
0.000000
0.000000
0.000000
0.000000
0.000000
0.000000
0.000000
0.000000
1.018392
0.383230
0.334022
0.262649
0.611967
0.644637
0.465977
0.189087
0.255379
1.814549
0.499631
1.392748
0.235737
0.995123
0.704558
0.982947
0.919312
0.249176
0.677153
0.211005
0.000000
0.000000
0.000000
0.000000
0.547194
1.265933
0.945044
0.700493
1.876103
0.865690
0.680504
0.448029
0.660902
0.778293
1.623370
0.695185
0.316435
1.222586
1.067299
1.776404
0.092963
0.458391
0.943039
0.649798
0.000000
0.000000
0.000000
0.000000
0.995655
0.990019
0.593598
0.680774
0.673370
0.638492
0.435106
0.851390
1.065766
0.374944
0.638441
1.183967
0.218969
0.738643
0.615617
1.561697
0.633081
1.949008
0.406392
0.366748
0.000000
0.000000
0.000000
0.000000
0.488230
0.696184
0.516709
0.221466
0.836352
0.503976
0.475146
0.980933
0.431668
0.270684
0.285657
0.797170
0.554400
0.554577
1.154539
0.737046
0.451350
1.881049
0.481750
0.931650
0.000000
0.000000
0.000000
0.000000
0.426718
0.395204
0.191034
0.117169
0.971220
0.526976
1.504556
0.775953
0.232689
0.600278
0.190283
0.744444
0.619449
0.621454
0.148803
0.870766
0.935620
1.295719
0.774748
1.518236
0.000000
0.000000
0.000000
0.000000
1.270375
0.176702
0.460859
0.405187
0.260731
0.652489
0.238421
0.595505
0.024778
0.256564
0.121729
0.638875
0.230901
0.344624
0.200827
0.614477
0.551601
0.305077
0.336560
0.968556
0.000000
0.000000
0.000000
0.000000
1.059854
0.734006
0.252688
0.349883
0.634044
1.848546
0.170139
0.742796
0.314674
0.117643
0.805820
0.657880
0.618126
0.439025
0.093165
0.707555
0.199440
0.901995
1.338132
1.013473
0.000000
0.000000
0.000000
0.000000
0.721322
0.968156
0.546681
0.606136
0.051636
1.332847
0.703014
0.540883
1.097622
1.685986
0.733567
0.209706
0.462781
0.727371
0.675303
1.629030
0.463009
0.438169
0.271069
0.458988
0.000000
0.000000
0.000000
0.000000
0.994811
4.277283
0.992124
0.575915
1.036026
1.083242
0.755720
0.369580
0.723849
1.079827
0.624529
1.413676
0.342707
1.198945
1.305149
1.011641
0.447640
0.990869
0.747773
0.608269
0.000000
0.000000
0.000000
0.000000
0.787586
0.906967
1.024333
0.802552
0.439503
0.638070
1.490912
0.965961
1.235723
0.849730
0.627405
0.238931
1.634426
0.568385
0.451061
0.254171
0.693619
0.387239
0.759029
0.974807
0.000000
0.000000
0.000000
0.000000
0.000000
0.000000
0.000000
0.000000
0.000000
0.000000
0.000000
0.000000
0.000000
0.000000
0.000000
0.000000
0.000000
0.000000
0.000000
0.000000
0.000000
0.000000
0.000000
0.000000
0.000000
0.000000
0.000000
0.000000
0.000000
0.000000
0.000000
0.000000
0.000000
0.000000
0.000000
0.000000
0.000000
0.000000
0.000000
0.000000
0.000000
0.000000
0.000000
0.000000
0.000000
0.000000
0.000000
0.000000
0.000000
0.000000
0.000000
0.000000
0.000000
0.000000
0.000000
0.000000
0.000000
0.000000
0.000000
0.000000
0.000000
0.000000
0.000000
0.000000
0.000000
0.000000
0.000000
0.000000
0.000000
0.000000
0.000000
0.000000
0.000000
0.000000
0.000000
0.000000
0.000000
0.000000
0.000000
0.000000
0.000000
0.000000
0.000000
0.000000
0.000000
0.000000
0.000000
0.000000
0.000000
0.000000
0.000000
0.000000
0.000000
0.000000
0.000000
0.000000
0.000000
0.000000
0.000000
0.000000
0.000000
0.000000
0.000000
0.000000
0.000000
0.000000
0.000000
0.000000
0.000000
0.000000
0.000000
0.000000
0.000000
0.000000
0.000000
0.000000
0.000000
0.000000
0.000000
0.000000
0.000000
0.000000
0.000000
0.000000
0.000000
0.000000
0.000000
0.000000
0.000000
0.000000
0.000000
0.000000
0.000000
0.000000
0.000000
0.000000
0.000000
0.000000
0.000000
0.000000
0.000000
0.000000
0.000000
0.000000
0.000000
0.000000
0.000000
0.000000
0.000000
0.000000
0.000000
0.000000
0.000000
0.000000
0.000000
0.000000
0.000000
0.000000
0.000000
0.000000
0.000000
0.000000
0.000000
0.000000
0.000000
0.000000
0.000000
0.000000
0.000000
0.000000
0.000000
0.000000
0.000000
0.000000
0.000000
0.000000
0.000000
0.000000
0.000000
0.000000
0.000000
0.000000
0.000000
0.000000
0.000000
0.000000
0.000000
0.000000
0.000000
0.000000
0.000000
0.000000
0.000000
0.000000
0.000000
0.000000
0.000000
0.000000
0.000000
0.000000
0.000000
0.000000
0.000000
0.000000
0.000000
0.000000
0.000000
0.000000
0.000000
0.000000
0.000000
0.000000
0.000000
0.000000
0.000000
0.000000
0.000000
0.000000
0.000000
0.000000
0.000000
0.000000
0.000000
0.000000
0.000000
0.000000
0.000000
0.000000
0.000000
0.000000
0.000000
0.000000
</DataArray>
<DataArray NumberOfComponents='1' type='Float32' Name='pressure' format='ascii'>
0.000000
0.000000
0.000000
0.000000
0.000000
0.000000
0.000000
0.000000
0.000000
0.000000
0.000000
0.000000
0.000000
0.000000
0.000000
0.000000
0.000000
0.000000
0.000000
0.000000
0.000000
0.000000
0.000000
0.000000
0.000000
0.000000
0.000000
0.000000
0.000000
0.000000
0.000000
0.000000
0.000000
0.000000
0.000000
0.000000
0.000000
0.000000
0.000000
0.000000
0.000000
0.000000
0.000000
0.000000
0.000000
0.000000
0.000000
0.000000
0.000000
0.000000
0.000000
0.000000
0.000000
0.000000
0.000000
0.000000
0.000000
0.000000
11782.840820
12424.820312
11833.416016
5877.072754
3781.664551
5828.876953
6566.249023
1971.042358
0.000000
0.000000
0.000000
0.000000
0.000000
0.000000
0.000000
0.000000
0.000000
0.000000
0.000000
0.000000
0.000000
0.000000
0.000000
0.000000
0.000000
0.000000
0.000000
0.000000
10933.122070
13650.877930
15970.514648
0.000000
0.000000
4834.854492
8463.408203
0.000000
0.000000
0.000000
0.000000
0.000000
0.000000
0.000000
0.000000
0.000000
0.000000
0.000000
0.000000
0.000000
0.000000
0.000000
0.000000
0.000000
0.000000
0.000000
0.000000
0.000000
8860.359375
7849.277832
0.000000
0.000000
181.432587
872.109314
709.005371
5171.586426
665.707031
896.011047
857.823669
0.000000
0.000000
1359.265503
1633.321289
6555.341797
1562.821289
12618.520508
1914.937012
0.000000
0.000000
1165.408447
0.000000
0.000000
4920.566406
0.000000
0.000000
0.000000
0.000000
0.000000
0.000000
0.000000
0.000000
148.329575
0.000000
0.000000
0.000000
1236.601196
0.000000
0.000000
0.000000
0.000000
185.365982
22.029573
1847.058472
2338.648682
0.000000
0.000000
6305.156250
3725.122559
0.000000
1625.812500
0.000000
851.534546
0.000000
347.697052
984.225403
0.000000
810.511841
47.748932
1581.116577
0.000000
1125.246216
0.000000
0.000000
315.196869
0.000000
7537.720215
46.547184
869.371460
0.000000
0.000000
4443.528809
4265.486816
962.545410
0.000000
679.291748
476.849060
0.000000
1488.007324
0.000000
0.000000
0.000000
552.428284
0.000000
0.000000
209.868164
0.000000
0.000000
1375.583252
0.000000
0.000000
0.000000
0.000000
0.000000
0.000000
3211.529785
2339.552734
890.017090
0.000000
0.000000
1493.582520
0.000000
476.444153
0.000000
0.000000
1093.245728
111.193687
2278.547119
0.000000
2570.569580
0.000000
0.000000
0.000000
0.000000
5099.382812
9.634346
0.000000
0.000000
0.000000
1279.166382
0.000000
0.000000
957.531128
1142.019165
155.398346
0.000000
0.000000
0.000000
0.000000
1835.272949
0.000000
363.299896
0.000000
1315.288696
358.167206
381.815002
0.000000
321.606415
0.000000
0.000000
0.000000
0.000000
0.000000
3212.251709
1213.755981
0.000000
0.000000
0.000000
0.000000
0.000000
0.000000
1081.410767
0.000000
268.287231
899.456726
0.000000
0.000000
0.000000
623.225220
2006.536865
0.000000
1288.304810
0.000000
0.000000
0.000000
0.000000
0.000000
2858.274414
1439.519531
1927.400146
0.000000
0.000000
2140.787354
471.763519
0.000000
139.158417
632.487427
0.000000
0.000000
0.000000
467.355804
1313.778564
1321.176147
0.000000
0.000000
1378.277222
0.000000
0.000000
837.515564
0.000000
0.000000
2625.452637
3068.531982
0.000000
0.000000
0.000000
0.000000
3370.526611
0.000000
0.000000
0.000000
0.000000
0.000000
0.000000
0.000000
0.000000
2145.395020
0.000000
0.000000
1224.965942
0.000000
0.000000
0.000000
0.000000
0.000000
0.000000
0.000000
0.000000
0.000000
0.000000
0.000000
0.000000
0.000000
0.000000
0.000000
0.000000
0.000000
0.000000
0.000000
0.000000
0.000000
0.000000
0.000000
629.054810
738.038574
0.000000
0.000000
0.000000
0.000000
0.000000
0.000000
0.000000
0.000000
0.000000
0.000000
0.000000
0.000000
0.000000
0.000000
0.000000
0.000000
253.994995
767.305176
0.000000
0.000000
991.212952
289.836975
0.000000
0.000000
1202.486694
1789.008545
0.000000
0.000000
634.205444
388.839752
0.000000
0.000000
646.180054
803.657227
0.000000
0.000000
1012.585754
784.055786
0.000000
0.000000
1862.598389
841.254211
0.000000
0.000000
3170.145508
3010.416748
0.000000
0.000000
2331.530273
0.000000
0.000000
0.000000
1183.665405
0.000000
0.000000
0.000000
87.132545
170.301773
0.000000
0.000000
1168.307129
1846.360107
0.000000
0.000000
0.000000
0.000000
0.000000
0.000000
1678.826172
1841.684448
0.000000
0.000000
0.000000
0.000000
0.000000
0.000000
971.410950
1114.651611
0.000000
0.000000
0.000000
0.000000
0.000000
0.000000
294.231354
548.320251
0.000000
0.000000
2378.032227
2521.304932
0.000000
0.000000
2056.624512
601.275085
0.000000
0.000000
2247.318359
1002.506165
0.000000
0.000000
1678.564087
933.373108
0.000000
0.000000
1514.492676
1458.862305
0.000000
0.000000
1062.646362
1678.292480
0.000000
0.000000
635.808411
0.000000
0.000000
0.000000
3187.086182
3405.969238
0.000000
0.000000
1534.451660
1419.513794
0.000000
0.000000
1273.130737
418.252014
1037.226807
504.121674
0.000000
0.000000
0.000000
0.000000
0.000000
0.000000
0.000000
0.000000
0.000000
0.000000
0.000000
0.000000
0.000000
0.000000
0.000000
0.000000
0.000000
0.000000
0.000000
0.000000
0.000000
0.000000
0.000000
0.000000
1103.863403
1053.490356
1401.700439
923.809082
908.234619
0.000000
0.000000
0.000000
0.000000
0.000000
0.000000
0.000000
0.000000
0.000000
0.000000
0.000000
0.000000
0.000000
0.000000
0.000000
0.000000
0.000000
0.000000
0.000000
0.000000
0.000000
0.000000
0.000000
0.000000
0.000000
0.000000
0.000000
0.000000
0.000000
0.000000
0.000000
0.000000
0.000000
0.000000
0.000000
0.000000
0.000000
0.000000
0.000000
0.000000
0.000000
0.000000
0.000000
0.000000
0.000000
0.000000
0.000000
0.000000
0.000000
0.000000
0.000000
0.000000
0.000000
0.000000
0.000000
0.000000
0.000000
0.000000
0.000000
0.000000
0.000000
0.000000
0.000000
0.000000
0.000000
0.000000
0.000000
0.000000
0.000000
0.000000
0.000000
0.000000
0.000000
0.000000
0.000000
0.000000
0.000000
</DataArray>
</PointData>
<Cells>
<DataArray type='Int32' Name='connectivity' format='ascii'>
0
1
2
3
4
5
6
7
8
9
10
11
12
13
14
15
16
17
18
19
20
21
22
23
24
25
26
27
28
29
30
31
32
33
34
35
36
37
38
39
40
41
42
43
44
45
46
47
48
49
50
51
52
53
54
55
56
57
58
59
60
61
62
63
64
65
66
67
68
69
70
71
72
73
74
75
76
77
78
79
80
81
82
83
84
85
86
87
88
89
90
91
92
93
94
95
96
97
98
99
100
101
102
103
104
105
106
107
108
109
110
111
112
113
114
115
116
117
118
119
120
121
122
123
124
125
126
127
128
129
130
131
132
133
134
135
136
137
138
139
140
141
142
143
144
145
146
147
148
149
150
151
152
153
154
155
156
157
158
159
160
161
162
163
164
165
166
167
168
169
170
171
172
173
174
175
176
177
178
179
180
181
182
183
184
185
186
187
188
189
190
191
192
193
194
195
196
197
198
199
200
201
202
203
204
205
206
207
208
209
210
211
212
213
214
215
216
217
218
219
220
221
222
223
224
225
226
227
228
229
230
231
232
233
234
235
236
237
238
239
240
241
242
243
244
245
246
247
248
249
250
251
252
253
254
255
256
257
258
259
260
261
262
263
264
265
266
267
268
269
270
271
272
273
274
275
276
277
278
279
280
281
282
283
284
285
286
287
288
289
290
291
292
293
294
295
296
297
298
299
300
301
302
303
304
305
306
307
308
309
310
311
312
313
314
315
316
317
318
319
320
321
322
323
324
325
326
327
328
329
330
331