<?xml version='1.0' encoding='UTF-8'?>
<VTKFile xmlns='VTK' byte_order='LittleEndian' version='0.1' type='UnstructuredGrid'>
<UnstructuredGrid>
<Piece NumberOfCells='584' NumberOfPoints='584'>
<Points>
<DataArray NumberOfComponents='3' type='Float32' Name='Position' format='ascii'>
-0.075000 -0.075000 0.000000
-0.075000 -0.050000 0.000000
-0.075000 -0.025000 0.000000
-0.075000 0.000000 0.000000
-0.075000 0.025000 0.000000
-0.075000 0.050000 0.000000
-0.075000 0.075000 0.000000
-0.075000 0.100000 0.000000
-0.075000 0.125000 0.000000
-0.075000 0.150000 0.000000
-0.075000 0.175000 0.000000
-0.075000 0.200000 0.000000
-0.075000 0.225000 0.000000
-0.075000 0.250000 0.000000
-0.075000 0.275000 0.000000
-0.075000 0.300000 0.000000
-0.075000 0.325000 0.000000
-0.075000 0.350000 0.000000
-0.075000 0.375000 0.000000
-0.075000 0.400000 0.000000
-0.075000 0.425000 0.000000
-0.075000 0.450000 0.000000
-0.075000 0.475000 0.000000
-0.075000 0.500000 0.000000
-0.075000 0.525000 0.000000
-0.075000 0.550000 0.000000
-0.075000 0.575000 0.000000
-0.075000 0.600000 0.000000
-0.050000 -0.075000 0.000000
-0.050000 -0.050000 0.000000
-0.050000 -0.025000 0.000000
-0.050000 0.000000 0.000000
-0.050000 0.025000 0.000000
-0.050000 0.050000 0.000000
-0.050000 0.075000 0.000000
-0.050000 0.100000 0.000000
-0.050000 0.125000 0.000000
-0.050000 0.150000 0.000000
-0.050000 0.175000 0.000000
-0.050000 0.200000 0.000000
-0.050000 0.225000 0.000000
-0.050000 0.250000 0.000000
-0.050000 0.275000 0.000000
-0.050000 0.300000 0.000000
-0.050000 0.325000 0.000000
-0.050000 0.350000 0.000000
-0.050000 0.375000 0.000000
-0.050000 0.400000 0.000000
-0.050000 0.425000 0.000000
-0.050000 0.450000 0.000000
-0.050000 0.475000 0.000000
-0.050000 0.500000 0.000000
-0.050000 0.525000 0.000000
-0.050000 0.550000 0.000000
-0.050000 0.575000 0.000000
-0.050000 0.600000 0.000000
-0.025000 -0.075000 0.000000
-0.025000 -0.050000 0.000000
-0.025000 -0.025000 0.000000
-0.025000 0.000000 0.000000
-0.025000 0.025000 0.000000
-0.025000 0.050000 0.000000
-0.025000 0.075000 0.000000
-0.025000 0.100000 0.000000
-0.025000 0.125000 0.000000
-0.025000 0.150000 0.000000
-0.025000 0.175000 0.000000
-0.025000 0.200000 0.000000
-0.025000 0.225000 0.000000
-0.025000 0.250000 0.000000
-0.025000 0.275000 0.000000
-0.025000 0.300000 0.000000
-0.025000 0.325000 0.000000
-0.025000 0.350000 0.000000
-0.025000 0.375000 0.000000
-0.025000 0.400000 0.000000
-0.025000 0.425000 0.000000
-0.025000 0.450000 0.000000
-0.025000 0.475000 0.000000
-0.025000 0.500000 0.000000
-0.025000 0.525000 0.000000
-0.025000 0.550000 0.000000
-0.025000 0.575000 0.000000
-0.025000 0.600000 0.000000
0.000000 -0.075000 0.000000
0.000000 -0.050000 0.000000
0.000000 -0.025000 0.000000
0.000000 0.000000 0.000000
0.000000 0.025000 0.000000
0.000000 0.050000 0.000000
0.000000 0.075000 0.000000
0.000000 0.100000 0.000000
0.000000 0.125000 0.000000
0.000000 0.150000 0.000000
0.000000 0.175000 0.000000
0.000000 0.200000 0.000000
0.000000 0.225000 0.000000
0.000000 0.250000 0.000000
0.000000 0.275000 0.000000
0.000000 0.300000 0.000000
0.000000 0.325000 0.000000
0.000000 0.350000 0.000000
0.000000 0.375000 0.000000
0.000000 0.400000 0.000000
0.000000 0.425000 0.000000
0.000000 0.450000 0.000000
0.000000 0.475000 0.000000
0.000000 0.500000 0.000000
0.000000 0.525000 0.000000
0.000000 0.550000 0.000000
0.000000 0.575000 0.000000
0.000000 0.600000 0.000000
0.025000 -0.075000 0.000000
0.025000 -0.050000 0.000000
0.025000 -0.025000 0.000000
0.025000 0.000000 0.000000
0.287515 0.021283 0.000000
0.254300 0.024500 0.000000
0.253003 0.054190 0.000000
0.183215 0.022669 0.000000
0.367202 0.020753 0.000000
0.071250 0.024622 0.000000
0.471350 0.031675 0.000000
0.317352 0.023796 0.000000
0.215567 0.021895 0.000000
0.148059 0.056411 0.000000
0.296627 0.045459 0.000000
0.185295 0.042979 0.000000
0.149147 0.023173 0.000000
0.036785 0.019548 0.000000
0.020362 0.043499 0.000000
0.042180 0.043523 0.000000
0.104543 0.023335 0.000000
0.082793 0.044289 0.000000
0.086003 0.065794 0.000000
0.124028 0.028617 0.000000
0.050000 -0.075000 0.000000
0.050000 -0.050000 0.000000
0.050000 -0.025000 0.000000
0.050000 0.000000 0.000000
0.348976 0.028405 0.000000
0.581403 0.088325 0.000000
0.563230 0.047971 0.000000
0.478291 0.163425 0.000000
0.535703 0.136840 0.000000
0.657343 0.039459 0.000000
0.536601 0.070682 0.000000
0.760135 0.053129 0.000000
0.406437 0.025683 0.000000
0.402188 0.067035 0.000000
0.455739 0.119037 0.000000
0.474317 0.057229 0.000000
0.063818 0.045873 0.000000
0.449604 0.076322 0.000000
0.263259 0.040380 0.000000
0.310761 0.049239 0.000000
0.208380 0.042846 0.000000
0.331063 0.046399 0.000000
0.116588 0.050368 0.000000
0.158891 0.044925 0.000000
0.075000 -0.075000 0.000000
0.075000 -0.050000 0.000000
0.075000 -0.025000 0.000000
0.075000 0.000000 0.000000
0.386816 0.057838 0.000000
0.569579 0.094776 0.000000
0.562626 0.035222 0.000000
0.520335 0.025759 0.000000
0.826049 0.109184 0.000000
0.844396 0.022709 0.000000
0.841624 0.060138 0.000000
0.354585 0.149509 0.000000
0.799058 0.071707 0.000000
0.811233 0.055633 0.000000
0.661408 0.020664 0.000000
0.532227 0.029752 0.000000
0.375052 0.098569 0.000000
0.395113 0.040346 0.000000
0.430141 0.032792 0.000000
0.362380 0.064911 0.000000
0.351417 0.058599 0.000000
0.435875 0.088451 0.000000
0.453351 0.136108 0.000000
0.229150 0.044909 0.000000
0.100000 -0.075000 0.000000
0.100000 -0.050000 0.000000
0.100000 -0.025000 0.000000
0.100000 0.000000 0.000000
0.699004 0.041581 0.000000
0.614924 0.022200 0.000000
0.768932 0.091934 0.000000
0.913866 0.021531 0.000000
0.437814 0.063528 0.000000
0.887503 0.039089 0.000000
0.882919 0.081313 0.000000
0.747222 0.163196 0.000000
0.876300 0.021603 0.000000
0.857590 0.046494 0.000000
0.688686 0.023846 0.000000
0.668376 0.058357 0.000000
0.830332 0.087159 0.000000
0.805972 0.024770 0.000000
0.598413 0.074851 0.000000
0.442293 0.023114 0.000000
0.730917 0.021099 0.000000
0.792995 0.137639 0.000000
0.618611 0.042889 0.000000
0.497047 0.071140 0.000000
0.125000 -0.075000 0.000000
0.125000 -0.050000 0.000000
0.125000 -0.025000 0.000000
0.125000 0.000000 0.000000
0.915849 0.046632 0.000000
0.903813 0.117684 0.000000
1.002018 0.146106 0.000000
0.947082 0.023080 0.000000
0.939728 0.184265 0.000000
0.766001 0.022187 0.000000
0.701053 0.117079 0.000000
0.878949 0.142976 0.000000
0.931949 0.107693 0.000000
0.877607 0.114512 0.000000
0.949193 0.094667 0.000000
0.808160 0.193598 0.000000
0.719726 0.055083 0.000000
0.778760 0.060797 0.000000
0.620574 0.069169 0.000000
0.784590 0.034117 0.000000
0.810958 0.132187 0.000000
0.529599 0.081475 0.000000
0.749446 0.090261 0.000000
0.505509 0.114691 0.000000
0.150000 -0.075000 0.000000
0.150000 -0.050000 0.000000
0.150000 -0.025000 0.000000
0.150000 0.000000 0.000000
0.728019 0.111480 0.000000
0.995723 0.058209 0.000000
0.954495 0.302482 0.000000
0.657991 0.080878 0.000000
0.978002 0.067753 0.000000
0.557302 0.132461 0.000000
0.978452 0.116692 0.000000
0.785731 0.101375 0.000000
1.003717 0.109816 0.000000
0.957019 0.144322 0.000000
0.966386 0.037338 0.000000
0.884432 0.058498 0.000000
0.937366 0.044119 0.000000
0.955625 0.063364 0.000000
0.904740 0.092333 0.000000
0.849561 0.120580 0.000000
0.824978 0.033602 0.000000
0.866282 0.098997 0.000000
0.850919 0.077001 0.000000
0.685878 0.071660 0.000000
0.175000 -0.075000 0.000000
0.175000 -0.050000 0.000000
0.175000 -0.025000 0.000000
0.175000 0.000000 0.000000
0.411406 0.114811 0.000000
0.956398 0.167182 0.000000
0.973595 0.185986 0.000000
0.990342 0.167296 0.000000
0.982173 0.140730 0.000000
0.616448 0.141620 0.000000
0.983112 0.022395 0.000000
0.767528 0.174918 0.000000
0.640579 0.097502 0.000000
1.004395 0.034580 0.000000
0.861203 0.165540 0.000000
0.930704 0.165960 0.000000
0.784103 0.167515 0.000000
0.949907 0.123900 0.000000
0.975552 0.096388 0.000000
0.675513 0.088927 0.000000
0.999953 0.084621 0.000000
0.831843 0.136278 0.000000
0.767584 0.133925 0.000000
0.807326 0.176849 0.000000
0.200000 -0.075000 0.000000
0.200000 -0.050000 0.000000
0.200000 -0.025000 0.000000
0.200000 0.000000 0.000000
0.759222 0.323513 0.000000
0.563514 0.162379 0.000000
0.709761 0.164777 0.000000
0.957130 0.230437 0.000000
0.697900 0.136096 0.000000
0.828263 0.167933 0.000000
0.864915 0.199324 0.000000
1.010206 0.308800 0.000000
0.853532 0.146191 0.000000
0.544353 0.120875 0.000000
1.003900 0.189681 0.000000
0.936383 0.075163 0.000000
0.378093 0.152851 0.000000
0.723431 0.095710 0.000000
0.891638 0.165029 0.000000
0.645489 0.126818 0.000000
0.911802 0.173282 0.000000
0.753833 0.129214 0.000000
0.925628 0.133646 0.000000
0.911654 0.071648 0.000000
0.225000 -0.075000 0.000000
0.225000 -0.050000 0.000000
0.225000 -0.025000 0.000000
0.225000 0.000000 0.000000
0.753868 0.220067 0.000000
0.942150 1.112665 0.000000
0.897428 0.203687 0.000000
0.492234 0.109572 0.000000
0.460104 0.101580 0.000000
0.382548 0.169089 0.000000
0.851252 0.187215 0.000000
0.988379 0.201446 0.000000
0.912882 0.218577 0.000000
0.664708 0.125384 0.000000
0.954638 0.205088 0.000000
0.487007 0.139758 0.000000
0.595056 0.056361 0.000000
0.804152 0.098979 0.000000
0.576730 0.120942 0.000000
0.731372 0.142406 0.000000
0.739999 0.070255 0.000000
0.514534 0.160667 0.000000
0.592670 0.117858 0.000000
0.627359 0.123008 0.000000
0.250000 -0.075000 0.000000
0.250000 -0.050000 0.000000
0.250000 -0.025000 0.000000
0.250000 0.000000 0.000000
0.939400 0.685977 0.000000
0.725917 0.616161 0.000000
0.709752 0.072181 0.000000
0.762419 0.195714 0.000000
0.534177 0.764400 0.000000
0.829124 0.192975 0.000000
0.571934 0.543778 0.000000
0.672084 0.325418 0.000000
0.491766 0.021780 0.000000
0.886609 0.190592 0.000000
0.489518 0.088412 0.000000
0.462975 0.197630 0.000000
0.679704 0.129031 0.000000
0.740680 0.038107 0.000000
0.633992 0.058120 0.000000
0.722912 0.175858 0.000000
0.592784 0.023594 0.000000
0.902279 0.138446 0.000000
0.454747 0.181670 0.000000
0.926610 0.216208 0.000000
0.275000 -0.075000 0.000000
0.275000 -0.050000 0.000000
0.275000 -0.025000 0.000000
0.275000 0.000000 0.000000
0.300000 -0.075000 0.000000
0.300000 -0.050000 0.000000
0.300000 -0.025000 0.000000
0.300000 0.000000 0.000000
0.325000 -0.075000 0.000000
0.325000 -0.050000 0.000000
0.325000 -0.025000 0.000000
0.325000 0.000000 0.000000
0.350000 -0.075000 0.000000
0.350000 -0.050000 0.000000
0.350000 -0.025000 0.000000
0.350000 0.000000 0.000000
0.375000 -0.075000 0.000000
0.375000 -0.050000 0.000000
0.375000 -0.025000 0.000000
0.375000 0.000000 0.000000
0.400000 -0.075000 0.000000
0.400000 -0.050000 0.000000
0.400000 -0.025000 0.000000
0.400000 0.000000 0.000000
0.425000 -0.075000 0.000000
0.425000 -0.050000 0.000000
0.425000 -0.025000 0.000000
0.425000 0.000000 0.000000
0.450000 -0.075000 0.000000
0.450000 -0.050000 0.000000
0.450000 -0.025000 0.000000
0.450000 0.000000 0.000000
0.475000 -0.075000 0.000000
0.475000 -0.050000 0.000000
0.475000 -0.025000 0.000000
0.475000 0.000000 0.000000
0.500000 -0.075000 0.000000
0.500000 -0.050000 0.000000
0.500000 -0.025000 0.000000
0.500000 0.000000 0.000000
0.525000 -0.075000 0.000000
0.525000 -0.050000 0.000000
0.525000 -0.025000 0.000000
0.525000 0.000000 0.000000
0.550000 -0.075000 0.000000
0.550000 -0.050000 0.000000
0.550000 -0.025000 0.000000
0.550000 0.000000 0.000000
0.575000 -0.075000 0.000000
0.575000 -0.050000 0.000000
0.575000 -0.025000 0.000000
0.575000 0.000000 0.000000
0.600000 -0.075000 0.000000
0.600000 -0.050000 0.000000
0.600000 -0.025000 0.000000
0.600000 0.000000 0.000000
0.625000 -0.075000 0.000000
0.625000 -0.050000 0.000000
0.625000 -0.025000 0.000000
0.625000 0.000000 0.000000
0.650000 -0.075000 0.000000
0.650000 -0.050000 0.000000
0.650000 -0.025000 0.000000
0.650000 0.000000 0.000000
0.675000 -0.075000 0.000000
0.675000 -0.050000 0.000000
0.675000 -0.025000 0.000000
0.675000 0.000000 0.000000
0.700000 -0.075000 0.000000
0.700000 -0.050000 0.000000
0.700000 -0.025000 0.000000
0.700000 0.000000 0.000000
0.725000 -0.075000 0.000000
0.725000 -0.050000 0.000000
0.725000 -0.025000 0.000000
0.725000 0.000000 0.000000
0.750000 -0.075000 0.000000
0.750000 -0.050000 0.000000
0.750000 -0.025000 0.000000
0.750000 0.000000 0.000000
0.775000 -0.075000 0.000000
0.775000 -0.050000 0.000000
0.775000 -0.025000 0.000000
0.775000 0.000000 0.000000
0.800000 -0.075000 0.000000
0.800000 -0.050000 0.000000
0.800000 -0.025000 0.000000
0.800000 0.000000 0.000000
0.825000 -0.075000 0.000000
0.825000 -0.050000 0.000000
0.825000 -0.025000 0.000000
0.825000 0.000000 0.000000
0.850000 -0.075000 0.000000
0.850000 -0.050000 0.000000
0.850000 -0.025000 0.000000
0.850000 0.000000 0.000000
0.875000 -0.075000 0.000000
0.875000 -0.050000 0.000000
0.875000 -0.025000 0.000000
0.875000 0.000000 0.000000
0.900000 -0.075000 0.000000
0.900000 -0.050000 0.000000
0.900000 -0.025000 0.000000
0.900000 0.000000 0.000000
0.925000 -0.075000 0.000000
0.925000 -0.050000 0.000000
0.925000 -0.025000 0.000000
0.925000 0.000000 0.000000
0.950000 -0.075000 0.000000
0.950000 -0.050000 0.000000
0.950000 -0.025000 0.000000
0.950000 0.000000 0.000000
0.975000 -0.075000 0.000000
0.975000 -0.050000 0.000000
0.975000 -0.025000 0.000000
0.975000 0.000000 0.000000
1.000000 -0.075000 0.000000
1.000000 -0.050000 0.000000
1.000000 -0.025000 0.000000
1.000000 0.000000 0.000000
1.025000 -0.075000 0.000000
1.025000 -0.050000 0.000000
1.025000 -0.025000 0.000000
1.025000 0.000000 0.000000
1.025000 0.025000 0.000000
1.025000 0.050000 0.000000
1.025000 0.075000 0.000000
1.025000 0.100000 0.000000
1.025000 0.125000 0.000000
1.025000 0.150000 0.000000
1.025000 0.175000 0.000000
1.025000 0.200000 0.000000
1.025000 0.225000 0.000000
1.025000 0.250000 0.000000
1.025000 0.275000 0.000000
1.025000 0.300000 0.000000
1.025000 0.325000 0.000000
1.025000 0.350000 0.000000
1.025000 0.375000 0.000000
1.025000 0.400000 0.000000
1.025000 0.425000 0.000000
1.025000 0.450000 0.000000
1.025000 0.475000 0.000000
1.025000 0.500000 0.000000
1.025000 0.525000 0.000000
1.025000 0.550000 0.000000
1.025000 0.575000 0.000000
1.025000 0.600000 0.000000
1.050000 -0.075000 0.000000
1.050000 -0.050000 0.000000
1.050000 -0.025000 0.000000
1.050000 0.000000 0.000000
1.050000 0.025000 0.000000
1.050000 0.050000 0.000000
1.050000 0.075000 0.000000
1.050000 0.100000 0.000000
1.050000 0.125000 0.000000
1.050000 0.150000 0.000000
1.050000 0.175000 0.000000
1.050000 0.200000 0.000000
1.050000 0.225000 0.000000
1.050000 0.250000 0.000000
1.050000 0.275000 0.000000
1.050000 0.300000 0.000000
1.050000 0.325000 0.000000
1.050000 0.350000 0.000000
1.050000 0.375000 0.000000
1.050000 0.400000 0.000000
1.050000 0.425000 0.000000
1.050000 0.450000 0.000000
1.050000 0.475000 0.000000
1.050000 0.500000 0.000000
1.050000 0.525000 0.000000
1.050000 0.550000 0.000000
1.050000 0.575000 0.000000
1.050000 0.600000 0.000000
1.075000 -0.075000 0.000000
1.075000 -0.050000 0.000000
1.075000 -0.025000 0.000000
1.075000 0.000000 0.000000
1.075000 0.025000 0.000000
1.075000 0.050000 0.000000
1.075000 0.075000 0.000000
1.075000 0.100000 0.000000
1.075000 0.125000 0.000000
1.075000 0.150000 0.000000
1.075000 0.175000 0.000000
1.075000 0.200000 0.000000
1.075000 0.225000 0.000000
1.075000 0.250000 0.000000
1.075000 0.275000 0.000000
1.075000 0.300000 0.000000
1.075000 0.325000 0.000000
1.075000 0.350000 0.000000
1.075000 0.375000 0.000000
1.075000 0.400000 0.000000
1.075000 0.425000 0.000000
1.075000 0.450000 0.000000
1.075000 0.475000 0.000000
1.075000 0.500000 0.000000
1.075000 0.525000 0.000000
1.075000 0.550000 0.000000
1.075000 0.575000 0.000000
1.075000 0.600000 0.000000
1.100000 -0.075000 0.000000
1.100000 -0.050000 0.000000
1.100000 -0.025000 0.000000
1.100000 0.000000 0.000000
1.100000 0.025000 0.000000
1.100000 0.050000 0.000000
1.100000 0.075000 0.000000
1.100000 0.100000 0.000000
1.100000 0.125000 0.000000
1.100000 0.150000 0.000000
1.100000 0.175000 0.000000
1.100000 0.200000 0.000000
1.100000 0.225000 0.000000
1.100000 0.250000 0.000000
1.100000 0.275000 0.000000
1.100000 0.300000 0.000000
1.100000 0.325000 0.000000
1.100000 0.350000 0.000000
1.100000 0.375000 0.000000
1.100000 0.400000 0.000000
1.100000 0.425000 0.000000
1.100000 0.450000 0.000000
1.100000 0.475000 0.000000
1.100000 0.500000 0.000000
1.100000 0.525000 0.000000
1.100000 0.550000 0.000000
1.100000 0.575000 0.000000
1.100000 0.600000 0.000000
</DataArray>
</Points>
<PointData>
<DataArray NumberOfComponents='1' type='Int32' Name='ParticleType' format='ascii'>
3
3
3
3
3
3
3
3
3
3
3
3
3
3
3
3
3
3
3
3
3
3
3
3
3
3
2
2
3
3
3
3
3
3
3
3
3
3
3
3
3
3
3
3
3
3
3
3
3
3
3
3
3
3
2
2
3
3
2
2
2
2
2
2
2
2
2
2
2
2
2
2
2
2
2
2
2
2
2
2
2
2
2
2
3
3
2
2
2
2
2
2
2
2
2
2
2
2
2
2
2
2
2
2
2
2
2
2
2
2
2
2
3
3
2
2
0
0
0
0
0
0
0
0
0
0
0
0
0
0
0
0
0
0
0
0
3
3
2
2
0
0
0
0
0
0
0
0
0
0
0
0
0
0
0
0
0
0
0
0
3
3
2
2
0
0
0
0
0
0
0
0
0
0
0
0
0
0
0
0
0
0
0
0
3
3
2
2
0
0
0
0
0
0
0
0
0
0
0
0
0
0
0
0
0
0
0
0
3
3
2
2
0
0
0
0
0
0
0
0
0
0
0
0
0
0
0
0
0
0
0
0
3
3
2
2
0
0
0
0
0
0
0
0
0
0
0
0
0
0
0
0
0
0
0
0
3
3
2
2
0
0
0
0
0
0
0
0
0
0
0
0
0
0
0
0
0
0
0
0
3
3
2
2
0
0
0
0
0
0
0
0
0
0
0
0
0
0
0
0
0
0
0
0
3
3
2
2
0
0
0
0
0
0
0
0
0
0
0
0
0
0
0
0
0
0
0
0
3
3
2
2
0
0
0
0
0
0
0
0
0
0
0
0
0
0
0
0
0
0
0
0
3
3
2
2
3
3
2
2
3
3
2
2
3
3
2
2
3
3
2
2
3
3
2
2
3
3
2
2
3
3
2
2
3
3
2
2
3
3
2
2
3
3
2
2
3
3
2
2
3
3
2
2
3
3
2
2
3
3
2
2
3
3
2
2
3
3
2
2
3
3
2
2
3
3
2
2
3
3
2
2
3
3
2
2
3
3
2
2
3
3
2
2
3
3
2
2
3
3
2
2
3
3
2
2
3
3
2
2
3
3
2
2
3
3
2
2
3
3
2
2
3
3
2
2
2
2
2
2
2
2
2
2
2
2
2
2
2
2
2
2
2
2
2
2
2
2
2
2
3
3
2
2
2
2
2
2
2
2
2
2
2
2
2
2
2
2
2
2
2
2
2
2
2
2
2
2
3
3
3
3
3
3
3
3
3
3
3
3
3
3
3
3
3
3
3
3
3
3
3
3
3
3
2
2
3
3
3
3
3
3
3
3
3
3
3
3
3
3
3
3
3
3
3
3
3
3
3
3
3
3
2
2
</DataArray>
<DataArray NumberOfComponents='1' type='Float32' Name='Velocity' format='ascii'>
0.000000
0.000000
0.000000
0.000000
0.000000
0.000000
0.000000
0.000000
0.000000
0.000000
0.000000
0.000000
0.000000
0.000000
0.000000
0.000000
0.000000
0.000000
0.000000
0.000000
0.000000
0.000000
0.000000
0.000000
0.000000
0.000000
0.000000
0.000000
0.000000
0.000000
0.000000
0.000000
0.000000
0.000000
0.000000
0.000000
0.000000
0.000000
0.000000
0.000000
0.000000
0.000000
0.000000
0.000000
0.000000
0.000000
0.000000
0.000000
0.000000
0.000000
0.000000
0.000000
0.000000
0.000000
0.000000
0.000000
0.000000
0.000000
0.000000
0.000000
0.000000
0.000000
0.000000
0.000000
0.000000
0.000000
0.000000
0.000000
0.000000
0.000000
0.000000
0.000000
0.000000
0.000000
0.000000
0.000000
0.000000
0.000000
0.000000
0.000000
0.000000
0.000000
0.000000
0.000000
0.000000
0.000000
0.000000
0.000000
0.000000
0.000000
0.000000
0.000000
0.000000
0.000000
0.000000
0.000000
0.000000
0.000000
0.000000
0.000000
0.000000
0.000000
0.000000
0.000000
0.000000
0.000000
0.000000
0.000000
0.000000
0.000000
0.000000
0.000000
0.000000
0.000000
0.000000
0.000000
0.066088
0.236972
0.355788
0.130182
0.158178
0.138709
0.319996
0.065832
0.198734
0.179594
0.344243
0.184546
0.181105
0.124143
0.213385
0.276179
0.131594
0.179482
0.159728
0.082254
0.000000
0.000000
0.000000
0.000000
0.255314
1.354159
0.768652
2.285267
1.652472
0.234082
0.765374
0.373983
0.370937
0.508349
1.321873
0.081286
0.078453
0.243970
0.096643
0.460583
0.163870
0.346757
0.206447
0.305570
0.000000
0.000000
0.000000
0.000000
0.433416
1.438407
0.249132
0.606304
0.562635
0.030385
0.579266
2.706409
0.137358
0.369883
0.110136
0.823104
0.561422
0.287892
0.299342
0.479280
0.446500
0.647883
0.285402
0.324304
0.000000
0.000000
0.000000
0.000000
0.372217
0.461328
0.874101
0.193470
0.236027
0.432098
0.420663
1.536311
0.619114
0.223781
0.053047
0.050050
0.511572
0.186940
0.445832
0.214937
0.232805
0.923746
0.675867
1.451171
0.000000
0.000000
0.000000
0.000000
0.237695
0.171708
0.320998
0.347041
0.513655
0.377021
1.703760
0.347579
0.436045
0.392287
0.471013
0.834298
0.650187
0.509881
0.977372
0.413848
1.171076
0.815285
0.350871
1.624849
0.000000
0.000000
0.000000
0.000000
0.785198
0.298051
0.649462
1.466020
0.284945
2.388604
0.156263
0.367793
0.400225
0.164846
0.103541
0.253220
0.056463
0.054620
0.498657
0.314007
0.212733
0.308740
0.249550
0.457015
0.000000
0.000000
0.000000
0.000000
0.920924
0.300309
0.392937
0.388882
0.242602
1.782358
0.246879
1.131706
1.317565
0.308896
0.203351
0.433847
1.127998
0.206114
0.250229
0.963694
0.295384
0.919296
1.221184
0.510627
0.000000
0.000000
0.000000
0.000000
2.979052
2.314450
2.245198
0.412100
2.144383
1.275636
1.254724
0.667193
0.893727
2.312123
0.575944
0.774338
2.599561
0.563734
0.603008
1.656572
0.518841
1.098275
0.413472
0.207640
0.000000
0.000000
0.000000
0.000000
1.914272
1.925931
0.690958
1.520961
0.482301
2.638205
0.915230
0.587941
0.635348
2.164323
0.658538
2.402802
1.361462
0.881046
2.251692
1.234178
0.485369
2.848422
1.646175
1.033998
0.000000
0.000000
0.000000
0.000000
2.659664
2.653973
0.183597
1.127250
2.588885
1.358322
2.806517
3.068062
0.411287
0.999564
1.372926
2.595325
1.934038
0.570494
1.276452
1.836479
0.306450
0.597176
2.333837
0.371512
0.000000
0.000000
0.000000
0.000000
0.000000
0.000000
0.000000
0.000000
0.000000
0.000000
0.000000
0.000000
0.000000
0.000000
0.000000
0.000000
0.000000
0.000000
0.000000
0.000000
0.000000
0.000000
0.000000
0.000000
0.000000
0.000000
0.000000
0.000000
0.000000
0.000000
0.000000
0.000000
0.000000
0.000000
0.000000
0.000000
0.000000
0.000000
0.000000
0.000000
0.000000
0.000000
0.000000
0.000000
0.000000
0.000000
0.000000
0.000000
0.000000
0.000000
0.000000
0.000000
0.000000
0.000000
0.000000
0.000000
0.000000
0.000000
0.000000
0.000000
0.000000
0.000000
0.000000
0.000000
0.000000
0.000000
0.000000
0.000000
0.000000
0.000000
0.000000
0.000000
0.000000
0.000000
0.000000
0.000000
0.000000
0.000000
0.000000
0.000000
0.000000
0.000000
0.000000
0.000000
0.000000
0.000000
0.000000
0.000000
0.000000
0.000000
0.000000
0.000000
0.000000
0.000000
0.000000
0.000000
0.000000
0.000000
0.000000
0.000000
0.000000
0.000000
0.000000
0.000000
0.000000
0.000000
0.000000
0.000000
0.000000
0.000000
0.000000
0.000000
0.000000
0.000000
0.000000
0.000000
0.000000
0.000000
0.000000
0.000000
0.000000
0.000000
0.000000
0.000000
0.000000
0.000000
0.000000
0.000000
0.000000
0.000000
0.000000
0.000000
0.000000
0.000000
0.000000
0.000000
0.000000
0.000000
0.000000
0.000000
0.000000
0.000000
0.000000
0.000000
0.000000
0.000000
0.000000
0.000000
0.000000
0.000000
0.000000
0.000000
0.000000
0.000000
0.000000
0.000000
0.000000
0.000000
0.000000
0.000000
0.000000
0.000000
0.000000
0.000000
0.000000
0.000000
0.000000
0.000000
0.000000
0.000000
0.000000
0.000000
0.000000
0.000000
0.000000
0.000000
0.000000
0.000000
0.000000
0.000000
0.000000
0.000000
0.000000
0.000000
0.000000
0.000000
0.000000
0.000000
0.000000
0.000000
0.000000
0.000000
0.000000
0.000000
0.000000
0.000000
0.000000
0.000000
0.000000
0.000000
0.000000
0.000000
0.000000
0.000000
0.000000
0.000000
0.000000
0.000000
0.000000
0.000000
0.000000
0.000000
0.000000
0.000000
0.000000
0.000000
0.000000
0.000000
0.000000
0.000000
0.000000
0.000000
0.000000
0.000000
0.000000
0.000000
0.000000
0.000000
0.000000
0.000000
0.000000
0.000000
</DataArray>
<DataArray NumberOfComponents='1' type='Float32' Name='pressure' format='ascii'>
0.000000
0.000000
0.000000
0.000000
0.000000
0.000000
0.000000
0.000000
0.000000
0.000000
0.000000
0.000000
0.000000
0.000000
0.000000
0.000000
0.000000
0.000000
0.000000
0.000000
0.000000
0.000000
0.000000
0.000000
0.000000
0.000000
0.000000
0.000000
0.000000
0.000000
0.000000
0.000000
0.000000
0.000000
0.000000
0.000000
0.000000
0.000000
0.000000
0.000000
0.000000
0.000000
0.000000
0.000000
0.000000
0.000000
0.000000
0.000000
0.000000
0.000000
0.000000
0.000000
0.000000
0.000000
0.000000
0.000000
0.000000
0.000000
0.000000
0.000000
0.000000
1059.563354
0.000000
0.000000
0.000000
0.000000
0.000000
0.000000
0.000000
0.000000
0.000000
0.000000
0.000000
0.000000
0.000000
0.000000
0.000000
0.000000
0.000000
0.000000
0.000000
0.000000
0.000000
0.000000
0.000000
0.000000
0.000000
0.000000
0.000000
0.000000
0.000000
0.000000
0.000000
0.000000
0.000000
0.000000
0.000000
0.000000
0.000000
0.000000
0.000000
0.000000
0.000000
0.000000
0.000000
0.000000
0.000000
0.000000
0.000000
0.000000
0.000000
0.000000
0.000000
0.000000
1573.074951
0.000000
193.617172
513.128235
0.000000
1786.299194
0.000000
783.052368
0.000000
694.597717
835.510498
0.000000
0.000000
0.000000
0.000000
1102.905151
0.000000
0.000000
0.000000
0.000000
0.000000
0.000000
0.000000
0.000000
1736.182617
312.505371
0.000000
3281.175049
0.000000
0.000000
0.000000
0.000000
0.000000
1761.393188
0.000000
0.000000
0.000000
0.000000
0.000000
0.000000
0.000000
0.000000
0.000000
0.000000
0.000000
0.000000
0.000000
0.000000
417.179871
0.000000
0.000000
1415.597046
0.000000
0.000000
2640.404053
2151.658203
2274.073975
0.000000
233.467773
0.000000
2014.344727
0.000000
0.000000
0.000000
0.000000
0.000000
0.000000
0.000000
0.000000
0.000000
0.000000
0.000000
591.630371
0.000000
0.000000
1319.554932
1644.554688
0.000000
0.000000
4042.528809
1352.332031
0.000000
2856.970459
213.649643
0.000000
2740.827393
0.000000
2380.169189
0.000000
0.000000
312.271271
0.000000
2873.758057
0.000000
0.000000
0.000000
0.000000
97.117775
2077.830322
2666.357666
1055.906128
2699.793701
0.000000
2465.191895
0.000000
1342.342529
2456.110352
1510.898682
1555.115845
0.000000
1587.119873
2949.816650
1416.485107
1958.467163
0.000000
0.000000
1504.390747
0.000000
0.000000
0.000000
1276.589966
271.944885
0.000000
1984.214966
0.000000
0.000000
2981.581787
0.000000
1981.098267
1945.792358
1908.689087
740.031677
1033.589844
3741.039062
3249.707520
3070.330811
1559.692017
1152.190918
2648.179688
2361.044189
1249.146484
1147.531372
0.000000
0.000000
1710.806763
921.017029
0.000000
1503.177734
0.000000
166.078445
1719.421753
0.000000
1845.430298
0.000000
0.000000
2782.906738
2000.724365
388.760223
0.000000
1898.536743
2262.666260
0.000000
1233.869751
1024.520386
0.000000
468.169525
0.000000
0.000000
2083.405762
1617.076172
0.000000
0.000000
0.000000
0.000000
0.000000
0.000000
0.000000
0.000000
2614.317383
0.000000
654.609558
1361.890503
0.000000
1203.958130
952.659668
0.000000
0.000000
0.000000
0.000000
2133.257812
0.000000
0.000000
1751.653687
0.000000
0.000000
0.000000
0.000000
0.000000
0.000000
0.000000
0.000000
0.000000
0.000000
0.000000
0.000000
0.000000
0.000000
1927.407349
0.000000
0.000000
2244.944824
0.000000
0.000000
0.000000
0.000000
0.000000
997.171265
0.000000
0.000000
0.000000
0.000000
0.000000
0.000000
0.000000
0.000000
0.000000
0.000000
1532.707642
0.000000
0.000000
0.000000
1692.572510
4309.729004
0.000000
0.000000
2378.535889
0.000000
0.000000
0.000000
0.000000
1560.041870
745.861877
0.000000
0.000000
1655.002563
408.632690
0.000000
0.000000
725.335205
0.000000
0.000000
0.000000
875.679504
334.918396
0.000000
0.000000
1591.722534
794.033813
0.000000
0.000000
0.000000
0.000000
0.000000
0.000000
0.000000
0.000000
0.000000
0.000000
218.238525
0.000000
0.000000
0.000000
391.050995
0.000000
0.000000
0.000000
1307.686279
2210.436035
0.000000
0.000000
0.000000
0.000000
0.000000
0.000000
0.000000
0.000000
0.000000
0.000000
0.000000
0.000000
0.000000
0.000000
2375.114258
2234.650635
0.000000
0.000000
2182.234863
0.000000
0.000000
0.000000
3010.833984
0.000000
0.000000
0.000000
3668.607666
4269.539551
0.000000
0.000000
2231.107910
0.000000
0.000000
0.000000
3592.464844
1273.874268
0.000000
0.000000
3514.339355
2911.808838
0.000000
0.000000
3231.300293
2080.371338
0.000000
0.000000
2399.490723
1591.834717
0.000000
0.000000
2332.756104
1232.049683
0.000000
0.000000
4260.508789
4063.159912
0.000000
0.000000
5255.680176
5829.919922
0.000000
0.000000
4425.590332
2340.512939
0.000000
0.000000
4317.212891
2370.022949
0.000000
0.000000
4040.259033
4471.717773
0.000000
0.000000
3555.872559
3300.965576
0.000000
0.000000
2181.416748
0.000000
0.000000
0.000000
2108.498047
1363.799805
3818.825928
2203.937744
1688.405884
3037.346191
1251.546753
1571.054932
837.314514
0.000000
0.000000
0.000000
0.000000
96.075600
0.000000
0.000000
0.000000
0.000000
0.000000
0.000000
0.000000
0.000000
0.000000
0.000000
0.000000
0.000000
0.000000
0.000000
2254.939941
2538.783691
4049.550781
3470.745117
2352.871582
3442.093506
2700.028809
2467.417725
1881.252686
1653.657471
0.000000
0.000000
183.805527
5366.425781
4230.900879
0.000000
0.000000
0.000000
0.000000
0.000000
0.000000
0.000000
0.000000
0.000000
0.000000
0.000000
0.000000
0.000000
0.000000
0.000000
0.000000
0.000000
0.000000
0.000000
0.000000
0.000000
0.000000
0.000000
0.000000
0.000000
0.000000
0.000000
0.000000
0.000000
0.000000
0.000000
0.000000
0.000000
0.000000
0.000000
0.000000
0.000000
0.000000
0.000000
0.000000
0.000000
0.000000
0.000000
0.000000
0.000000
0.000000
0.000000
0.000000
0.000000
0.000000
0.000000
0.000000
0.000000
0.000000
0.000000
0.000000
0.000000
0.000000
0.000000
0.000000
0.000000
0.000000
0.000000
0.000000
0.000000
0.000000
0.000000
</DataArray>
</PointData>
<Cells>
<DataArray type='Int32' Name='connectivity' format='ascii'>
0
1
2
3
4
5
6
7
8
9
10
11
12
13
14
15
16
17
18
19
20
21
22
23
24
25
26
27
28
29
30
31
32
33
34
35
36
37
38
39
40
41
42
43
44
45
46
47
48
49
50
51
52
53
54
55
56
57
58
59
60
61
62
63
64
65
66
67
68
69
70
71
72
73
74
75
76
77
78
79
80
81
82
83
84
85
86
87
88
89
90
91
92
93
94
95
96
97
98
99
100
101
102
103
104
105
106
107
108
109
110
111
112
113
114
115
116
117
118
119
120
121
122
123
124
125
126
127
128
129
130
131
132
133
134
135
136
137
138
139
140
141
142
143
144
145
146
147
148
149
150
151
152
153
154
155
156
157
158
159
160
161
162
163
164
165
166
167
168
169
170
171
172
173
174
175
176
177
178
179
180
181
182
183
184
185
186
187
188
189
190
191
192
193
194
195
196
197
198
199
200
201
202
203
204
205
206
207
208
209
210
211
212
213
214
215
216
217
218
219
220
221
222
223
224
225
226
227
228
229
230
231
232
233
234
235
236
237
238
239
240
241
242
243
244
245
246
247
248
249
250
251
252
253
254
255
256
257
258
259
260
261
262
263
264
265
266
267
268
269
270
271
272
273
274
275
276
277
278
279
280
281
282
283
284
285
286
287
288
289
290
291
292
293
294
295
296
297
298
299
300
301
302
303
304
305
306
307
308
309
310
311
312
313
314
315
316
317
318
319
320
321
322
323
324
325