<?xml version='1.0' encoding='UTF-8'?>
<VTKFile xmlns='VTK' byte_order='LittleEndian' version='0.1' type='UnstructuredGrid'>
<UnstructuredGrid>
<Piece NumberOfCells='584' NumberOfPoints='584'>
<Points>
<DataArray NumberOfComponents='3' type='Float32' Name='Position' format='ascii'>
-0.075000 -0.075000 0.000000
-0.075000 -0.050000 0.000000
-0.075000 -0.025000 0.000000
-0.075000 0.000000 0.000000
-0.075000 0.025000 0.000000
-0.075000 0.050000 0.000000
-0.075000 0.075000 0.000000
-0.075000 0.100000 0.000000
-0.075000 0.125000 0.000000
-0.075000 0.150000 0.000000
-0.075000 0.175000 0.000000
-0.075000 0.200000 0.000000
-0.075000 0.225000 0.000000
-0.075000 0.250000 0.000000
-0.075000 0.275000 0.000000
-0.075000 0.300000 0.000000
-0.075000 0.325000 0.000000
-0.075000 0.350000 0.000000
-0.075000 0.375000 0.000000
-0.075000 0.400000 0.000000
-0.075000 0.425000 0.000000
-0.075000 0.450000 0.000000
-0.075000 0.475000 0.000000
-0.075000 0.500000 0.000000
-0.075000 0.525000 0.000000
-0.075000 0.550000 0.000000
-0.075000 0.575000 0.000000
-0.075000 0.600000 0.000000
-0.050000 -0.075000 0.000000
-0.050000 -0.050000 0.000000
-0.050000 -0.025000 0.000000
-0.050000 0.000000 0.000000
-0.050000 0.025000 0.000000
-0.050000 0.050000 0.000000
-0.050000 0.075000 0.000000
-0.050000 0.100000 0.000000
-0.050000 0.125000 0.000000
-0.050000 0.150000 0.000000
-0.050000 0.175000 0.000000
-0.050000 0.200000 0.000000
-0.050000 0.225000 0.000000
-0.050000 0.250000 0.000000
-0.050000 0.275000 0.000000
-0.050000 0.300000 0.000000
-0.050000 0.325000 0.000000
-0.050000 0.350000 0.000000
-0.050000 0.375000 0.000000
-0.050000 0.400000 0.000000
-0.050000 0.425000 0.000000
-0.050000 0.450000 0.000000
-0.050000 0.475000 0.000000
-0.050000 0.500000 0.000000
-0.050000 0.525000 0.000000
-0.050000 0.550000 0.000000
-0.050000 0.575000 0.000000
-0.050000 0.600000 0.000000
-0.025000 -0.075000 0.000000
-0.025000 -0.050000 0.000000
-0.025000 -0.025000 0.000000
-0.025000 0.000000 0.000000
-0.025000 0.025000 0.000000
-0.025000 0.050000 0.000000
-0.025000 0.075000 0.000000
-0.025000 0.100000 0.000000
-0.025000 0.125000 0.000000
-0.025000 0.150000 0.000000
-0.025000 0.175000 0.000000
-0.025000 0.200000 0.000000
-0.025000 0.225000 0.000000
-0.025000 0.250000 0.000000
-0.025000 0.275000 0.000000
-0.025000 0.300000 0.000000
-0.025000 0.325000 0.000000
-0.025000 0.350000 0.000000
-0.025000 0.375000 0.000000
-0.025000 0.400000 0.000000
-0.025000 0.425000 0.000000
-0.025000 0.450000 0.000000
-0.025000 0.475000 0.000000
-0.025000 0.500000 0.000000
-0.025000 0.525000 0.000000
-0.025000 0.550000 0.000000
-0.025000 0.575000 0.000000
-0.025000 0.600000 0.000000
0.000000 -0.075000 0.000000
0.000000 -0.050000 0.000000
0.000000 -0.025000 0.000000
0.000000 0.000000 0.000000
0.000000 0.025000 0.000000
0.000000 0.050000 0.000000
0.000000 0.075000 0.000000
0.000000 0.100000 0.000000
0.000000 0.125000 0.000000
0.000000 0.150000 0.000000
0.000000 0.175000 0.000000
0.000000 0.200000 0.000000
0.000000 0.225000 0.000000
0.000000 0.250000 0.000000
0.000000 0.275000 0.000000
0.000000 0.300000 0.000000
0.000000 0.325000 0.000000
0.000000 0.350000 0.000000
0.000000 0.375000 0.000000
0.000000 0.400000 0.000000
0.000000 0.425000 0.000000
0.000000 0.450000 0.000000
0.000000 0.475000 0.000000
0.000000 0.500000 0.000000
0.000000 0.525000 0.000000
0.000000 0.550000 0.000000
0.000000 0.575000 0.000000
0.000000 0.600000 0.000000
0.025000 -0.075000 0.000000
0.025000 -0.050000 0.000000
0.025000 -0.025000 0.000000
0.025000 0.000000 0.000000
0.121747 0.050246 0.000000
0.209947 0.070311 0.000000
0.149485 0.033683 0.000000
0.170556 0.023648 0.000000
0.256065 0.022987 0.000000
0.086872 0.094912 0.000000
0.321405 0.028584 0.000000
0.208969 0.029469 0.000000
0.190567 0.032540 0.000000
0.028107 0.219061 0.000000
0.233320 0.023963 0.000000
0.055569 0.157502 0.000000
0.131973 0.020738 0.000000
0.039929 0.055135 0.000000
0.101664 0.107665 0.000000
0.042189 0.025528 0.000000
0.051671 0.195198 0.000000
0.090876 0.022706 0.000000
0.076544 0.148509 0.000000
0.103305 0.039384 0.000000
0.050000 -0.075000 0.000000
0.050000 -0.050000 0.000000
0.050000 -0.025000 0.000000
0.050000 0.000000 0.000000
0.207946 0.152588 0.000000
0.129901 0.160452 0.000000
0.193763 0.168191 0.000000
0.021773 0.028186 0.000000
0.017613 0.164650 0.000000
0.479369 0.054391 0.000000
0.188597 0.084834 0.000000
0.613542 0.044193 0.000000
0.207948 0.123922 0.000000
0.259648 0.173228 0.000000
0.056736 0.083806 0.000000
0.262451 0.056387 0.000000
0.077916 0.182151 0.000000
0.184780 0.140447 0.000000
0.095672 0.073585 0.000000
0.023376 0.089121 0.000000
0.181558 0.067527 0.000000
0.237023 0.086063 0.000000
0.046096 0.253765 0.000000
0.077003 0.046439 0.000000
0.075000 -0.075000 0.000000
0.075000 -0.050000 0.000000
0.075000 -0.025000 0.000000
0.075000 0.000000 0.000000
0.167645 0.123999 0.000000
0.158197 0.105941 0.000000
0.424642 0.063379 0.000000
0.356233 0.021013 0.000000
0.565341 0.101247 0.000000
0.694120 0.021197 0.000000
0.717490 0.044132 0.000000
0.023183 0.119757 0.000000
0.503734 0.100179 0.000000
0.681860 0.038936 0.000000
0.474841 0.024920 0.000000
0.137052 0.144043 0.000000
0.217604 0.051109 0.000000
0.252624 0.097603 0.000000
0.277094 0.034677 0.000000
0.065982 0.121420 0.000000
0.186686 0.111024 0.000000
0.027150 0.068591 0.000000
0.153314 0.073263 0.000000
0.135386 0.073722 0.000000
0.100000 -0.075000 0.000000
0.100000 -0.050000 0.000000
0.100000 -0.025000 0.000000
0.100000 0.000000 0.000000
0.522261 0.023193 0.000000
0.438430 0.109780 0.000000
0.532420 0.046090 0.000000
0.832344 0.024336 0.000000
0.245772 0.055913 0.000000
0.789058 0.026030 0.000000
0.713834 0.090155 0.000000
0.293828 0.048807 0.000000
0.731732 0.023011 0.000000
0.740357 0.043189 0.000000
0.495158 0.029367 0.000000
0.405597 0.128982 0.000000
0.594410 0.056429 0.000000
0.646484 0.042467 0.000000
0.214079 0.206759 0.000000
0.302855 0.023471 0.000000
0.573623 0.024985 0.000000
0.325075 0.084571 0.000000
0.407098 0.069406 0.000000
0.272641 0.080748 0.000000
0.125000 -0.075000 0.000000
0.125000 -0.050000 0.000000
0.125000 -0.025000 0.000000
0.125000 0.000000 0.000000
0.764228 0.096353 0.000000
0.789147 0.161608 0.000000
1.002281 0.089090 0.000000
0.855281 0.026969 0.000000
0.665498 0.103880 0.000000
0.628099 0.023674 0.000000
0.278111 0.120406 0.000000
0.587244 0.102020 0.000000
0.817335 0.075873 0.000000
0.780094 0.070211 0.000000
0.940310 0.057323 0.000000
0.606739 0.077682 0.000000
0.552813 0.025143 0.000000
0.553376 0.057538 0.000000
0.446376 0.022960 0.000000
0.569204 0.081827 0.000000
0.420556 0.145835 0.000000
0.137720 0.113505 0.000000
0.533404 0.074582 0.000000
0.038663 0.182188 0.000000
0.150000 -0.075000 0.000000
0.150000 -0.050000 0.000000
0.150000 -0.025000 0.000000
0.150000 0.000000 0.000000
0.300195 0.069733 0.000000
0.961272 0.022551 0.000000
0.795741 0.109179 0.000000
0.344957 0.060306 0.000000
0.904491 0.029004 0.000000
0.160647 0.053727 0.000000
0.953215 0.060883 0.000000
0.495574 0.077563 0.000000
0.985941 0.070716 0.000000
0.761077 0.140644 0.000000
0.879911 0.049351 0.000000
0.762403 0.023150 0.000000
0.856749 0.054222 0.000000
0.836625 0.109423 0.000000
0.812477 0.028505 0.000000
0.671056 0.060221 0.000000
0.659209 0.022359 0.000000
0.690295 0.062551 0.000000
0.713934 0.063608 0.000000
0.369544 0.114876 0.000000
0.175000 -0.075000 0.000000
0.175000 -0.050000 0.000000
0.175000 -0.025000 0.000000
0.175000 0.000000 0.000000
0.040503 0.140366 0.000000
0.713185 0.105820 0.000000
0.954140 0.112010 0.000000
0.913009 0.120784 0.000000
0.983164 0.037448 0.000000
0.099061 0.188263 0.000000
0.878171 0.023381 0.000000
0.363895 0.038569 0.000000
0.418601 0.026408 0.000000
0.923005 0.023185 0.000000
0.637126 0.114900 0.000000
0.780694 0.099760 0.000000
0.549515 0.105881 0.000000
0.945833 0.036455 0.000000
1.001937 0.052235 0.000000
0.451284 0.043076 0.000000
0.997398 0.023425 0.000000
0.532414 0.138532 0.000000
0.257042 0.114462 0.000000
0.515599 0.113905 0.000000
0.200000 -0.075000 0.000000
0.200000 -0.050000 0.000000
0.200000 -0.025000 0.000000
0.200000 0.000000 0.000000
0.444346 0.085707 0.000000
0.114814 0.074167 0.000000
0.364209 0.087983 0.000000
0.841796 0.071150 0.000000
0.404575 0.037385 0.000000
0.391432 0.136803 0.000000
0.646541 0.063447 0.000000
0.971822 0.082568 0.000000
0.483658 0.132975 0.000000
0.039858 0.213276 0.000000
0.860365 0.079990 0.000000
0.754417 0.061001 0.000000
0.063956 0.028890 0.000000
0.511951 0.044958 0.000000
0.692443 0.111608 0.000000
0.090927 0.167372 0.000000
0.776285 0.043645 0.000000
0.461832 0.136698 0.000000
0.941597 0.109019 0.000000
0.746970 0.082182 0.000000
0.225000 -0.075000 0.000000
0.225000 -0.050000 0.000000
0.225000 -0.025000 0.000000
0.225000 0.000000 0.000000
0.341379 0.090046 0.000000
0.902091 0.054218 0.000000
0.635878 0.101623 0.000000
0.214908 0.090788 0.000000
0.113705 0.154430 0.000000
0.068875 0.275937 0.000000
0.528622 0.091993 0.000000
0.964628 0.100751 0.000000
0.682055 0.093996 0.000000
0.159012 0.151659 0.000000
0.740257 0.108419 0.000000
0.015623 0.290318 0.000000
0.388402 0.023540 0.000000
0.479192 0.076046 0.000000
0.084980 0.127537 0.000000
0.352091 0.140074 0.000000
0.574614 0.050736 0.000000
0.066697 0.067464 0.000000
0.321400 0.122018 0.000000
0.371903 0.060548 0.000000
0.250000 -0.075000 0.000000
0.250000 -0.050000 0.000000
0.250000 -0.025000 0.000000
0.250000 0.000000 0.000000
0.798630 0.062415 0.000000
0.458828 0.116573 0.000000
0.372855 0.129639 0.000000
0.399936 0.099683 0.000000
0.329000 0.049100 0.000000
0.476601 0.106515 0.000000
0.226142 0.124512 0.000000
0.304497 0.086171 0.000000
0.305729 0.122225 0.000000
0.606924 0.096267 0.000000
0.309792 0.136743 0.000000
0.032735 0.253538 0.000000
0.117498 0.124989 0.000000
0.602294 0.026241 0.000000
0.447963 0.063844 0.000000
0.384046 0.074916 0.000000
0.423719 0.097937 0.000000
0.822494 0.055810 0.000000
0.054344 0.105051 0.000000
0.634269 0.076802 0.000000
0.275000 -0.075000 0.000000
0.275000 -0.050000 0.000000
0.275000 -0.025000 0.000000
0.275000 0.000000 0.000000
0.300000 -0.075000 0.000000
0.300000 -0.050000 0.000000
0.300000 -0.025000 0.000000
0.300000 0.000000 0.000000
0.325000 -0.075000 0.000000
0.325000 -0.050000 0.000000
0.325000 -0.025000 0.000000
0.325000 0.000000 0.000000
0.350000 -0.075000 0.000000
0.350000 -0.050000 0.000000
0.350000 -0.025000 0.000000
0.350000 0.000000 0.000000
0.375000 -0.075000 0.000000
0.375000 -0.050000 0.000000
0.375000 -0.025000 0.000000
0.375000 0.000000 0.000000
0.400000 -0.075000 0.000000
0.400000 -0.050000 0.000000
0.400000 -0.025000 0.000000
0.400000 0.000000 0.000000
0.425000 -0.075000 0.000000
0.425000 -0.050000 0.000000
0.425000 -0.025000 0.000000
0.425000 0.000000 0.000000
0.450000 -0.075000 0.000000
0.450000 -0.050000 0.000000
0.450000 -0.025000 0.000000
0.450000 0.000000 0.000000
0.475000 -0.075000 0.000000
0.475000 -0.050000 0.000000
0.475000 -0.025000 0.000000
0.475000 0.000000 0.000000
0.500000 -0.075000 0.000000
0.500000 -0.050000 0.000000
0.500000 -0.025000 0.000000
0.500000 0.000000 0.000000
0.525000 -0.075000 0.000000
0.525000 -0.050000 0.000000
0.525000 -0.025000 0.000000
0.525000 0.000000 0.000000
0.550000 -0.075000 0.000000
0.550000 -0.050000 0.000000
0.550000 -0.025000 0.000000
0.550000 0.000000 0.000000
0.575000 -0.075000 0.000000
0.575000 -0.050000 0.000000
0.575000 -0.025000 0.000000
0.575000 0.000000 0.000000
0.600000 -0.075000 0.000000
0.600000 -0.050000 0.000000
0.600000 -0.025000 0.000000
0.600000 0.000000 0.000000
0.625000 -0.075000 0.000000
0.625000 -0.050000 0.000000
0.625000 -0.025000 0.000000
0.625000 0.000000 0.000000
0.650000 -0.075000 0.000000
0.650000 -0.050000 0.000000
0.650000 -0.025000 0.000000
0.650000 0.000000 0.000000
0.675000 -0.075000 0.000000
0.675000 -0.050000 0.000000
0.675000 -0.025000 0.000000
0.675000 0.000000 0.000000
0.700000 -0.075000 0.000000
0.700000 -0.050000 0.000000
0.700000 -0.025000 0.000000
0.700000 0.000000 0.000000
0.725000 -0.075000 0.000000
0.725000 -0.050000 0.000000
0.725000 -0.025000 0.000000
0.725000 0.000000 0.000000
0.750000 -0.075000 0.000000
0.750000 -0.050000 0.000000
0.750000 -0.025000 0.000000
0.750000 0.000000 0.000000
0.775000 -0.075000 0.000000
0.775000 -0.050000 0.000000
0.775000 -0.025000 0.000000
0.775000 0.000000 0.000000
0.800000 -0.075000 0.000000
0.800000 -0.050000 0.000000
0.800000 -0.025000 0.000000
0.800000 0.000000 0.000000
0.825000 -0.075000 0.000000
0.825000 -0.050000 0.000000
0.825000 -0.025000 0.000000
0.825000 0.000000 0.000000
0.850000 -0.075000 0.000000
0.850000 -0.050000 0.000000
0.850000 -0.025000 0.000000
0.850000 0.000000 0.000000
0.875000 -0.075000 0.000000
0.875000 -0.050000 0.000000
0.875000 -0.025000 0.000000
0.875000 0.000000 0.000000
0.900000 -0.075000 0.000000
0.900000 -0.050000 0.000000
0.900000 -0.025000 0.000000
0.900000 0.000000 0.000000
0.925000 -0.075000 0.000000
0.925000 -0.050000 0.000000
0.925000 -0.025000 0.000000
0.925000 0.000000 0.000000
0.950000 -0.075000 0.000000
0.950000 -0.050000 0.000000
0.950000 -0.025000 0.000000
0.950000 0.000000 0.000000
0.975000 -0.075000 0.000000
0.975000 -0.050000 0.000000
0.975000 -0.025000 0.000000
0.975000 0.000000 0.000000
1.000000 -0.075000 0.000000
1.000000 -0.050000 0.000000
1.000000 -0.025000 0.000000
1.000000 0.000000 0.000000
1.025000 -0.075000 0.000000
1.025000 -0.050000 0.000000
1.025000 -0.025000 0.000000
1.025000 0.000000 0.000000
1.025000 0.025000 0.000000
1.025000 0.050000 0.000000
1.025000 0.075000 0.000000
1.025000 0.100000 0.000000
1.025000 0.125000 0.000000
1.025000 0.150000 0.000000
1.025000 0.175000 0.000000
1.025000 0.200000 0.000000
1.025000 0.225000 0.000000
1.025000 0.250000 0.000000
1.025000 0.275000 0.000000
1.025000 0.300000 0.000000
1.025000 0.325000 0.000000
1.025000 0.350000 0.000000
1.025000 0.375000 0.000000
1.025000 0.400000 0.000000
1.025000 0.425000 0.000000
1.025000 0.450000 0.000000
1.025000 0.475000 0.000000
1.025000 0.500000 0.000000
1.025000 0.525000 0.000000
1.025000 0.550000 0.000000
1.025000 0.575000 0.000000
1.025000 0.600000 0.000000
1.050000 -0.075000 0.000000
1.050000 -0.050000 0.000000
1.050000 -0.025000 0.000000
1.050000 0.000000 0.000000
1.050000 0.025000 0.000000
1.050000 0.050000 0.000000
1.050000 0.075000 0.000000
1.050000 0.100000 0.000000
1.050000 0.125000 0.000000
1.050000 0.150000 0.000000
1.050000 0.175000 0.000000
1.050000 0.200000 0.000000
1.050000 0.225000 0.000000
1.050000 0.250000 0.000000
1.050000 0.275000 0.000000
1.050000 0.300000 0.000000
1.050000 0.325000 0.000000
1.050000 0.350000 0.000000
1.050000 0.375000 0.000000
1.050000 0.400000 0.000000
1.050000 0.425000 0.000000
1.050000 0.450000 0.000000
1.050000 0.475000 0.000000
1.050000 0.500000 0.000000
1.050000 0.525000 0.000000
1.050000 0.550000 0.000000
1.050000 0.575000 0.000000
1.050000 0.600000 0.000000
1.075000 -0.075000 0.000000
1.075000 -0.050000 0.000000
1.075000 -0.025000 0.000000
1.075000 0.000000 0.000000
1.075000 0.025000 0.000000
1.075000 0.050000 0.000000
1.075000 0.075000 0.000000
1.075000 0.100000 0.000000
1.075000 0.125000 0.000000
1.075000 0.150000 0.000000
1.075000 0.175000 0.000000
1.075000 0.200000 0.000000
1.075000 0.225000 0.000000
1.075000 0.250000 0.000000
1.075000 0.275000 0.000000
1.075000 0.300000 0.000000
1.075000 0.325000 0.000000
1.075000 0.350000 0.000000
1.075000 0.375000 0.000000
1.075000 0.400000 0.000000
1.075000 0.425000 0.000000
1.075000 0.450000 0.000000
1.075000 0.475000 0.000000
1.075000 0.500000 0.000000
1.075000 0.525000 0.000000
1.075000 0.550000 0.000000
1.075000 0.575000 0.000000
1.075000 0.600000 0.000000
1.100000 -0.075000 0.000000
1.100000 -0.050000 0.000000
1.100000 -0.025000 0.000000
1.100000 0.000000 0.000000
1.100000 0.025000 0.000000
1.100000 0.050000 0.000000
1.100000 0.075000 0.000000
1.100000 0.100000 0.000000
1.100000 0.125000 0.000000
1.100000 0.150000 0.000000
1.100000 0.175000 0.000000
1.100000 0.200000 0.000000
1.100000 0.225000 0.000000
1.100000 0.250000 0.000000
1.100000 0.275000 0.000000
1.100000 0.300000 0.000000
1.100000 0.325000 0.000000
1.100000 0.350000 0.000000
1.100000 0.375000 0.000000
1.100000 0.400000 0.000000
1.100000 0.425000 0.000000
1.100000 0.450000 0.000000
1.100000 0.475000 0.000000
1.100000 0.500000 0.000000
1.100000 0.525000 0.000000
1.100000 0.550000 0.000000
1.100000 0.575000 0.000000
1.100000 0.600000 0.000000
</DataArray>
</Points>
<PointData>
<DataArray NumberOfComponents='1' type='Int32' Name='ParticleType' format='ascii'>
3
3
3
3
3
3
3
3
3
3
3
3
3
3
3
3
3
3
3
3
3
3
3
3
3
3
2
2
3
3
3
3
3
3
3
3
3
3
3
3
3
3
3
3
3
3
3
3
3
3
3
3
3
3
2
2
3
3
2
2
2
2
2
2
2
2
2
2
2
2
2
2
2
2
2
2
2
2
2
2
2
2
2
2
3
3
2
2
2
2
2
2
2
2
2
2
2
2
2
2
2
2
2
2
2
2
2
2
2
2
2
2
3
3
2
2
0
0
0
0
0
0
0
0
0
0
0
0
0
0
0
0
0
0
0
0
3
3
2
2
0
0
0
0
0
0
0
0
0
0
0
0
0
0
0
0
0
0
0
0
3
3
2
2
0
0
0
0
0
0
0
0
0
0
0
0
0
0
0
0
0
0
0
0
3
3
2
2
0
0
0
0
0
0
0
0
0
0
0
0
0
0
0
0
0
0
0
0
3
3
2
2
0
0
0
0
0
0
0
0
0
0
0
0
0
0
0
0
0
0
0
0
3
3
2
2
0
0
0
0
0
0
0
0
0
0
0
0
0
0
0
0
0
0
0
0
3
3
2
2
0
0
0
0
0
0
0
0
0
0
0
0
0
0
0
0
0
0
0
0
3
3
2
2
0
0
0
0
0
0
0
0
0
0
0
0
0
0
0
0
0
0
0
0
3
3
2
2
0
0
0
0
0
0
0
0
0
0
0
0
0
0
0
0
0
0
0
0
3
3
2
2
0
0
0
0
0
0
0
0
0
0
0
0
0
0
0
0
0
0
0
0
3
3
2
2
3
3
2
2
3
3
2
2
3
3
2
2
3
3
2
2
3
3
2
2
3
3
2
2
3
3
2
2
3
3
2
2
3
3
2
2
3
3
2
2
3
3
2
2
3
3
2
2
3
3
2
2
3
3
2
2
3
3
2
2
3
3
2
2
3
3
2
2
3
3
2
2
3
3
2
2
3
3
2
2
3
3
2
2
3
3
2
2
3
3
2
2
3
3
2
2
3
3
2
2
3
3
2
2
3
3
2
2
3
3
2
2
3
3
2
2
3
3
2
2
2
2
2
2
2
2
2
2
2
2
2
2
2
2
2
2
2
2
2
2
2
2
2
2
3
3
2
2
2
2
2
2
2
2
2
2
2
2
2
2
2
2
2
2
2
2
2
2
2
2
2
2
3
3
3
3
3
3
3
3
3
3
3
3
3
3
3
3
3
3
3
3
3
3
3
3
3
3
2
2
3
3
3
3
3
3
3
3
3
3
3
3
3
3
3
3
3
3
3
3
3
3
3
3
3
3
2
2
</DataArray>
<DataArray NumberOfComponents='1' type='Float32' Name='Velocity' format='ascii'>
0.000000
0.000000
0.000000
0.000000
0.000000
0.000000
0.000000
0.000000
0.000000
0.000000
0.000000
0.000000
0.000000
0.000000
0.000000
0.000000
0.000000
0.000000
0.000000
0.000000
0.000000
0.000000
0.000000
0.000000
0.000000
0.000000
0.000000
0.000000
0.000000
0.000000
0.000000
0.000000
0.000000
0.000000
0.000000
0.000000
0.000000
0.000000
0.000000
0.000000
0.000000
0.000000
0.000000
0.000000
0.000000
0.000000
0.000000
0.000000
0.000000
0.000000
0.000000
0.000000
0.000000
0.000000
0.000000
0.000000
0.000000
0.000000
0.000000
0.000000
0.000000
0.000000
0.000000
0.000000
0.000000
0.000000
0.000000
0.000000
0.000000
0.000000
0.000000
0.000000
0.000000
0.000000
0.000000
0.000000
0.000000
0.000000
0.000000
0.000000
0.000000
0.000000
0.000000
0.000000
0.000000
0.000000
0.000000
0.000000
0.000000
0.000000
0.000000
0.000000
0.000000
0.000000
0.000000
0.000000
0.000000
0.000000
0.000000
0.000000
0.000000
0.000000
0.000000
0.000000
0.000000
0.000000
0.000000
0.000000
0.000000
0.000000
0.000000
0.000000
0.000000
0.000000
0.000000
0.000000
0.416933
0.432448
0.467504
0.169988
0.038486
0.624711
0.679941
0.156594
0.074422
0.576789
0.275860
0.730762
0.143832
0.076639
0.407231
0.068466
0.357899
0.194670
0.624800
0.645936
0.000000
0.000000
0.000000
0.000000
1.404242
1.264190
1.504667
0.098119
0.121790
0.424757
0.351909
0.357559
1.309171
0.491607
0.775930
0.481620
0.974071
0.920381
0.144623
0.250656
0.417610
0.659153
1.160905
0.465689
0.000000
0.000000
0.000000
0.000000
0.506975
0.328508
0.413271
0.489591
1.078829
0.088927
0.376264
0.548609
0.960971
0.564390
0.368786
0.678140
0.600266
0.529385
0.833167
0.379165
0.750181
0.155622
0.178624
0.512334
0.000000
0.000000
0.000000
0.000000
0.351518
0.770262
0.686229
0.283792
0.618383
0.262451
0.568433
0.514289
0.550738
0.308338
0.593211
1.080941
0.762053
0.546767
1.178337
0.483741
0.434748
0.651294
0.645393
0.419463
0.000000
0.000000
0.000000
0.000000
0.079849
0.870035
0.222741
0.242197
1.015175
0.523677
1.013894
1.270713
0.446358
0.306157
0.463372
0.546265
0.568558
0.669713
0.677520
1.069646
1.083600
0.298795
0.629338
0.235825
0.000000
0.000000
0.000000
0.000000
0.954450
0.291700
0.283517
0.799717
0.507583
0.130958
0.555144
0.750401
0.354335
1.530406
0.363686
0.283972
0.235754
0.159408
0.222183
0.729205
0.430057
0.550979
0.431383
0.871843
0.000000
0.000000
0.000000
0.000000
0.604738
0.627997
0.465122
0.736611
0.134709
1.121207
0.401057
0.285669
0.463111
0.324771
0.755463
0.315757
1.201680
0.306922
0.197047
0.216071
0.140169
0.428666
0.825317
1.040108
0.000000
0.000000
0.000000
0.000000
0.917091
0.341279
0.803534
0.700373
0.215828
1.239544
0.355802
0.163516
0.722528
0.521360
0.439723
0.550132
0.145042
0.452860
0.819352
0.854049
0.560348
0.896529
0.429046
0.239714
0.000000
0.000000
0.000000
0.000000
0.668707
0.467114
0.369017
0.463120
1.794516
0.435339
0.938038
0.467628
0.630019
1.158657
0.587690
1.669797
0.577851
0.883663
0.450601
1.446949
0.615917
0.351571
0.733069
0.717994
0.000000
0.000000
0.000000
0.000000
0.559043
0.801101
0.873778
0.418503
0.581132
1.058450
0.950361
0.824361
0.586179
0.790519
0.698717
0.962331
0.432597
0.586537
0.551346
0.467310
0.584823
0.407930
0.492837
0.791196
0.000000
0.000000
0.000000
0.000000
0.000000
0.000000
0.000000
0.000000
0.000000
0.000000
0.000000
0.000000
0.000000
0.000000
0.000000
0.000000
0.000000
0.000000
0.000000
0.000000
0.000000
0.000000
0.000000
0.000000
0.000000
0.000000
0.000000
0.000000
0.000000
0.000000
0.000000
0.000000
0.000000
0.000000
0.000000
0.000000
0.000000
0.000000
0.000000
0.000000
0.000000
0.000000
0.000000
0.000000
0.000000
0.000000
0.000000
0.000000
0.000000
0.000000
0.000000
0.000000
0.000000
0.000000
0.000000
0.000000
0.000000
0.000000
0.000000
0.000000
0.000000
0.000000
0.000000
0.000000
0.000000
0.000000
0.000000
0.000000
0.000000
0.000000
0.000000
0.000000
0.000000
0.000000
0.000000
0.000000
0.000000
0.000000
0.000000
0.000000
0.000000
0.000000
0.000000
0.000000
0.000000
0.000000
0.000000
0.000000
0.000000
0.000000
0.000000
0.000000
0.000000
0.000000
0.000000
0.000000
0.000000
0.000000
0.000000
0.000000
0.000000
0.000000
0.000000
0.000000
0.000000
0.000000
0.000000
0.000000
0.000000
0.000000
0.000000
0.000000
0.000000
0.000000
0.000000
0.000000
0.000000
0.000000
0.000000
0.000000
0.000000
0.000000
0.000000
0.000000
0.000000
0.000000
0.000000
0.000000
0.000000
0.000000
0.000000
0.000000
0.000000
0.000000
0.000000
0.000000
0.000000
0.000000
0.000000
0.000000
0.000000
0.000000
0.000000
0.000000
0.000000
0.000000
0.000000
0.000000
0.000000
0.000000
0.000000
0.000000
0.000000
0.000000
0.000000
0.000000
0.000000
0.000000
0.000000
0.000000
0.000000
0.000000
0.000000
0.000000
0.000000
0.000000
0.000000
0.000000
0.000000
0.000000
0.000000
0.000000
0.000000
0.000000
0.000000
0.000000
0.000000
0.000000
0.000000
0.000000
0.000000
0.000000
0.000000
0.000000
0.000000
0.000000
0.000000
0.000000
0.000000
0.000000
0.000000
0.000000
0.000000
0.000000
0.000000
0.000000
0.000000
0.000000
0.000000
0.000000
0.000000
0.000000
0.000000
0.000000
0.000000
0.000000
0.000000
0.000000
0.000000
0.000000
0.000000
0.000000
0.000000
0.000000
0.000000
0.000000
0.000000
0.000000
0.000000
0.000000
0.000000
0.000000
0.000000
0.000000
0.000000
0.000000
0.000000
0.000000
0.000000
0.000000
0.000000
0.000000
</DataArray>
<DataArray NumberOfComponents='1' type='Float32' Name='pressure' format='ascii'>
0.000000
0.000000
0.000000
0.000000
0.000000
0.000000
0.000000
0.000000
0.000000
0.000000
0.000000
0.000000
0.000000
0.000000
0.000000
0.000000
0.000000
0.000000
0.000000
0.000000
0.000000
0.000000
0.000000
0.000000
0.000000
0.000000
0.000000
0.000000
0.000000
0.000000
0.000000
0.000000
0.000000
0.000000
0.000000
0.000000
0.000000
0.000000
0.000000
0.000000
0.000000
0.000000
0.000000
0.000000
0.000000
0.000000
0.000000
0.000000
0.000000
0.000000
0.000000
0.000000
0.000000
0.000000
0.000000
0.000000
0.000000
0.000000
1599.438599
1681.535767
2408.298584
150.466965
0.000000
283.478729
948.208923
2523.319824
2958.323242
0.000000
0.000000
0.000000
3729.907715
4538.142090
0.000000
0.000000
0.000000
0.000000
0.000000
0.000000
0.000000
0.000000
0.000000
0.000000
0.000000
0.000000
0.000000
0.000000
1370.538330
2137.495605
2031.456909
0.000000
0.000000
0.000000
0.000000
0.000000
0.000000
0.000000
0.000000
0.000000
0.000000
0.000000
0.000000
0.000000
0.000000
0.000000
0.000000
0.000000
0.000000
0.000000
0.000000
0.000000
0.000000
0.000000
0.000000
0.000000
280.718018
1261.486450
1021.656494
1511.215942
3727.606445
1379.411377
739.424316
2151.931885
1496.151245
2321.033447
1310.496948
0.000000
604.168701
0.000000
1069.998169
0.000000
0.000000
2249.788574
0.000000
1860.194458
0.000000
2463.805176
0.000000
0.000000
453.720886
116.111870
0.000000
0.000000
0.000000
1628.036865
0.000000
0.000000
252.335709
1053.279419
0.000000
0.000000
714.618347
1353.602783
0.000000
0.000000
1725.875488
0.000000
725.594421
0.000000
0.000000
485.285736
0.000000
0.000000
930.151917
429.739349
596.269470
0.000000
1323.615723
2972.640381
0.000000
0.000000
891.228455
0.000000
577.480896
1778.877563
724.983887
2071.850342
0.000000
230.318420
827.851990
1755.998291
0.000000
1181.702271
1307.832886
1987.286499
0.000000
0.000000
2033.722168
128.685989
1075.650024
0.000000
1140.200562
431.353607
277.177338
744.791809
581.082336
939.285278
412.376587
916.228333
1671.386230
0.000000
391.610382
491.599762
0.000000
1893.601440
1566.715332
1546.139893
0.000000
0.000000
0.000000
0.000000
3398.314453
2496.547119
0.000000
0.000000
0.000000
0.000000
0.000000
0.000000
0.000000
0.000000
0.000000
547.638733
0.000000
708.013367
711.348938
0.000000
1618.147827
1508.909058
0.000000
0.000000
0.000000
0.000000
0.000000
0.000000
2358.574219
2357.991943
2176.157715
1449.965942
0.000000
961.806824
0.000000
784.812073
1014.069031
452.465057
0.000000
0.000000
0.000000
718.881165
0.000000
0.000000
0.000000
78.127968
1008.424011
0.000000
0.000000
0.000000
0.000000
0.000000
1837.469482
1732.246338
0.000000
0.000000
0.000000
0.000000
0.000000
0.000000
2243.202881
769.415771
1812.218750
867.560974
0.000000
0.000000
0.000000
1040.899780
0.000000
1334.445312
775.076538
0.000000
0.000000
0.000000
0.000000
0.000000
166.703918
0.000000
657.566650
2189.203125
0.000000
0.000000
1760.379761
0.000000
1180.398804
0.000000
0.000000
0.000000
0.000000
0.000000
1786.162231
768.692444
0.000000
0.000000
43.030598
0.000000
0.000000
0.000000
0.000000
0.000000
1081.266724
935.002258
0.000000
0.000000
0.000000
0.000000
123.837067
0.000000
2789.654541
0.000000
0.000000
0.000000
0.000000
0.000000
624.342834
85.706627
1462.060181
0.000000
945.227356
490.847717
0.000000
1666.153320
0.000000
0.000000
1889.670898
2347.670166
0.000000
333.470764
443.357391
0.000000
0.000000
0.000000
0.000000
0.000000
2088.928223
0.000000
0.000000
0.000000
0.000000
871.223267
770.770325
540.963074
753.228882
0.000000
0.000000
0.000000
0.000000
0.000000
541.169861
0.000000
0.000000
0.000000
1479.069946
551.959534
0.000000
0.000000
766.443359
0.000000
0.000000
0.000000
3481.807129
2342.226807
0.000000
0.000000
3373.050781
3698.163330
0.000000
0.000000
2372.955566
2110.367920
0.000000
0.000000
1441.980591
1508.343018
0.000000
0.000000
2306.771729
3023.073486
0.000000
0.000000
1170.105713
681.107849
0.000000
0.000000
3.597675
0.000000
0.000000
0.000000
1272.952759
1070.554199
0.000000
0.000000
664.134705
734.921021
0.000000
0.000000
709.715637
345.061462
0.000000
0.000000
569.669922
0.000000
0.000000
0.000000
2010.285156
2749.172607
0.000000
0.000000
2683.514648
2011.830688
0.000000
0.000000
3135.672363
1701.799316
0.000000
0.000000
3449.230225
2327.476074
0.000000
0.000000
2452.186279
1262.632080
0.000000
0.000000
1958.581055
1223.581177
0.000000
0.000000
1210.047363
1345.559814
0.000000
0.000000
271.798309
476.832520
0.000000
0.000000
1078.816895
2149.413086
0.000000
0.000000
589.035095
2070.728516
0.000000
0.000000
1655.277344
1978.049438
0.000000
0.000000
279.292236
70.530548
0.000000
0.000000
1618.959717
1956.589355
0.000000
0.000000
1334.854492
0.000000
0.000000
0.000000
999.471375
482.711609
0.000000
0.000000
1046.487549
882.308899
0.000000
0.000000
187.817520
0.000000
0.000000
404.890106
0.000000
0.000000
0.000000
0.000000
0.000000
0.000000
0.000000
0.000000
0.000000
0.000000
0.000000
0.000000
0.000000
0.000000
0.000000
0.000000
0.000000
0.000000
0.000000
0.000000
0.000000
0.000000
0.000000
0.000000
0.000000
0.000000
0.000000
408.292877
0.000000
56.241898
0.000000
0.000000
0.000000
0.000000
0.000000
0.000000
0.000000
0.000000
0.000000
0.000000
0.000000
0.000000
0.000000
0.000000
0.000000
0.000000
0.000000
0.000000
0.000000
0.000000
0.000000
0.000000
0.000000
0.000000
0.000000
0.000000
0.000000
0.000000
0.000000
0.000000
0.000000
0.000000
0.000000
0.000000
0.000000
0.000000
0.000000
0.000000
0.000000
0.000000
0.000000
0.000000
0.000000
0.000000
0.000000
0.000000
0.000000
0.000000
0.000000
0.000000
0.000000
0.000000
0.000000
0.000000
0.000000
0.000000
0.000000
0.000000
0.000000
0.000000
0.000000
0.000000
0.000000
0.000000
0.000000
0.000000
0.000000
0.000000
0.000000
0.000000
0.000000
0.000000
0.000000
0.000000
0.000000
0.000000
</DataArray>
</PointData>
<Cells>
<DataArray type='Int32' Name='connectivity' format='ascii'>
0
1
2
3
4
5
6
7
8
9
10
11
12
13
14
15
16
17
18
19
20
21
22
23
24
25
26
27
28
29
30
31
32
33
34
35
36
37
38
39
40
41
42
43
44
45
46
47
48
49
50
51
52
53
54
55
56
57
58
59
60
61
62
63
64
65
66
67
68
69
70
71
72
73
74
75
76
77
78
79
80
81
82
83
84
85
86
87
88
89
90
91
92
93
94
95
96
97
98
99
100
101
102
103
104
105
106
107
108
109
110
111
112
113
114
115
116
117
118
119
120
121
122
123
124
125
126
127
128
129
130
131
132
133
134
135
136
137
138
139
140
141
142
143
144
145
146
147
148
149
150
151
152
153
154
155
156
157
158
159
160
161
162
163
164
165
166
167
168
169
170
171
172
173
174
175
176
177
178
179
180
181
182
183
184
185
186
187
188
189
190
191
192
193
194
195
196
197
198
199
200
201
202
203
204
205
206
207
208
209
210
211
212
213
214
215
216
217
218
219
220
221
222
223
224
225
226
227
228
229
230
231
232
233
234
235
236
237
238
239
240
241
242
243
244
245
246
247
248
249
250
251
252
253
254
255
256
257
258
259
260
261
262
263
264
265
266
267
268
269
270
271
272
273
274
275
276
277
278
279
280
281
282
283
284
285
286
287
288
289
290
291
292
293
294
295
296
297
298
299
300
301
302
303
304
305
306
307
308
309
310
311
312
313
314
315
316
317
318
319