<?xml version='1.0' encoding='UTF-8'?>
<VTKFile xmlns='VTK' byte_order='LittleEndian' version='0.1' type='UnstructuredGrid'>
<UnstructuredGrid>
<Piece NumberOfCells='584' NumberOfPoints='584'>
<Points>
<DataArray NumberOfComponents='3' type='Float32' Name='Position' format='ascii'>
-0.075000 -0.075000 0.000000
-0.075000 -0.050000 0.000000
-0.075000 -0.025000 0.000000
-0.075000 0.000000 0.000000
-0.075000 0.025000 0.000000
-0.075000 0.050000 0.000000
-0.075000 0.075000 0.000000
-0.075000 0.100000 0.000000
-0.075000 0.125000 0.000000
-0.075000 0.150000 0.000000
-0.075000 0.175000 0.000000
-0.075000 0.200000 0.000000
-0.075000 0.225000 0.000000
-0.075000 0.250000 0.000000
-0.075000 0.275000 0.000000
-0.075000 0.300000 0.000000
-0.075000 0.325000 0.000000
-0.075000 0.350000 0.000000
-0.075000 0.375000 0.000000
-0.075000 0.400000 0.000000
-0.075000 0.425000 0.000000
-0.075000 0.450000 0.000000
-0.075000 0.475000 0.000000
-0.075000 0.500000 0.000000
-0.075000 0.525000 0.000000
-0.075000 0.550000 0.000000
-0.075000 0.575000 0.000000
-0.075000 0.600000 0.000000
-0.050000 -0.075000 0.000000
-0.050000 -0.050000 0.000000
-0.050000 -0.025000 0.000000
-0.050000 0.000000 0.000000
-0.050000 0.025000 0.000000
-0.050000 0.050000 0.000000
-0.050000 0.075000 0.000000
-0.050000 0.100000 0.000000
-0.050000 0.125000 0.000000
-0.050000 0.150000 0.000000
-0.050000 0.175000 0.000000
-0.050000 0.200000 0.000000
-0.050000 0.225000 0.000000
-0.050000 0.250000 0.000000
-0.050000 0.275000 0.000000
-0.050000 0.300000 0.000000
-0.050000 0.325000 0.000000
-0.050000 0.350000 0.000000
-0.050000 0.375000 0.000000
-0.050000 0.400000 0.000000
-0.050000 0.425000 0.000000
-0.050000 0.450000 0.000000
-0.050000 0.475000 0.000000
-0.050000 0.500000 0.000000
-0.050000 0.525000 0.000000
-0.050000 0.550000 0.000000
-0.050000 0.575000 0.000000
-0.050000 0.600000 0.000000
-0.025000 -0.075000 0.000000
-0.025000 -0.050000 0.000000
-0.025000 -0.025000 0.000000
-0.025000 0.000000 0.000000
-0.025000 0.025000 0.000000
-0.025000 0.050000 0.000000
-0.025000 0.075000 0.000000
-0.025000 0.100000 0.000000
-0.025000 0.125000 0.000000
-0.025000 0.150000 0.000000
-0.025000 0.175000 0.000000
-0.025000 0.200000 0.000000
-0.025000 0.225000 0.000000
-0.025000 0.250000 0.000000
-0.025000 0.275000 0.000000
-0.025000 0.300000 0.000000
-0.025000 0.325000 0.000000
-0.025000 0.350000 0.000000
-0.025000 0.375000 0.000000
-0.025000 0.400000 0.000000
-0.025000 0.425000 0.000000
-0.025000 0.450000 0.000000
-0.025000 0.475000 0.000000
-0.025000 0.500000 0.000000
-0.025000 0.525000 0.000000
-0.025000 0.550000 0.000000
-0.025000 0.575000 0.000000
-0.025000 0.600000 0.000000
0.000000 -0.075000 0.000000
0.000000 -0.050000 0.000000
0.000000 -0.025000 0.000000
0.000000 0.000000 0.000000
0.000000 0.025000 0.000000
0.000000 0.050000 0.000000
0.000000 0.075000 0.000000
0.000000 0.100000 0.000000
0.000000 0.125000 0.000000
0.000000 0.150000 0.000000
0.000000 0.175000 0.000000
0.000000 0.200000 0.000000
0.000000 0.225000 0.000000
0.000000 0.250000 0.000000
0.000000 0.275000 0.000000
0.000000 0.300000 0.000000
0.000000 0.325000 0.000000
0.000000 0.350000 0.000000
0.000000 0.375000 0.000000
0.000000 0.400000 0.000000
0.000000 0.425000 0.000000
0.000000 0.450000 0.000000
0.000000 0.475000 0.000000
0.000000 0.500000 0.000000
0.000000 0.525000 0.000000
0.000000 0.550000 0.000000
0.000000 0.575000 0.000000
0.000000 0.600000 0.000000
0.025000 -0.075000 0.000000
0.025000 -0.050000 0.000000
0.025000 -0.025000 0.000000
0.025000 0.000000 0.000000
0.172494 0.024278 0.000000
0.150259 0.027692 0.000000
0.121212 0.021337 0.000000
0.083840 0.021989 0.000000
0.188847 0.043718 0.000000
0.040412 0.020014 0.000000
0.237926 0.061343 0.000000
0.163319 0.049551 0.000000
0.110530 0.038239 0.000000
0.080202 0.042495 0.000000
0.141447 0.062851 0.000000
0.121913 0.056226 0.000000
0.059248 0.039852 0.000000
0.022359 0.034570 0.000000
0.030586 0.058059 0.000000
0.031720 0.080625 0.000000
0.063440 0.083635 0.000000
0.025102 0.100724 0.000000
0.026738 0.125010 0.000000
0.049119 0.106425 0.000000
0.050000 -0.075000 0.000000
0.050000 -0.050000 0.000000
0.050000 -0.025000 0.000000
0.050000 0.000000 0.000000
0.202403 0.024375 0.000000
0.227325 0.048899 0.000000
0.318584 0.069798 0.000000
0.343165 0.042518 0.000000
0.303496 0.085195 0.000000
0.309197 0.104622 0.000000
0.283911 0.058714 0.000000
0.408745 0.066767 0.000000
0.196985 0.065461 0.000000
0.250754 0.023293 0.000000
0.265049 0.077321 0.000000
0.266345 0.047066 0.000000
0.052425 0.061174 0.000000
0.241223 0.084750 0.000000
0.103269 0.079506 0.000000
0.164104 0.073349 0.000000
0.092111 0.064781 0.000000
0.138240 0.088524 0.000000
0.072506 0.109925 0.000000
0.083741 0.094992 0.000000
0.075000 -0.075000 0.000000
0.075000 -0.050000 0.000000
0.075000 -0.025000 0.000000
0.075000 0.000000 0.000000
0.225039 0.027322 0.000000
0.321600 0.043895 0.000000
0.314954 0.019923 0.000000
0.293299 0.041734 0.000000
0.414969 0.045108 0.000000
0.515200 0.024525 0.000000
0.540067 0.022606 0.000000
0.340623 0.067602 0.000000
0.426778 0.086193 0.000000
0.462984 0.089603 0.000000
0.368179 0.061875 0.000000
0.256292 0.097226 0.000000
0.224862 0.104500 0.000000
0.208426 0.103268 0.000000
0.193371 0.080443 0.000000
0.150674 0.098042 0.000000
0.173377 0.106400 0.000000
0.268825 0.114364 0.000000
0.236529 0.134717 0.000000
0.117246 0.103104 0.000000
0.100000 -0.075000 0.000000
0.100000 -0.050000 0.000000
0.100000 -0.025000 0.000000
0.100000 0.000000 0.000000
0.383948 0.031639 0.000000
0.352018 0.021862 0.000000
0.483908 0.025558 0.000000
0.673801 0.038615 0.000000
0.275474 0.024612 0.000000
0.586581 0.023982 0.000000
0.590158 0.044914 0.000000
0.565590 0.057222 0.000000
0.513584 0.050464 0.000000
0.538650 0.046968 0.000000
0.384779 0.051299 0.000000
0.402526 0.021171 0.000000
0.431724 0.056796 0.000000
0.446941 0.105246 0.000000
0.359645 0.082964 0.000000
0.195298 0.116424 0.000000
0.396812 0.094298 0.000000
0.373279 0.098328 0.000000
0.306639 0.128258 0.000000
0.284093 0.116436 0.000000
0.125000 -0.075000 0.000000
0.125000 -0.050000 0.000000
0.125000 -0.025000 0.000000
0.125000 0.000000 0.000000
0.713395 0.019903 0.000000
0.565703 0.030152 0.000000
0.892201 0.047247 0.000000
0.870038 0.022322 0.000000
0.872174 0.052586 0.000000
0.442358 0.018529 0.000000
0.650817 0.042285 0.000000
0.705300 0.044187 0.000000
0.665008 0.021269 0.000000
0.571640 0.075239 0.000000
0.693811 0.076630 0.000000
0.626036 0.039524 0.000000
0.516166 0.075671 0.000000
0.413474 0.095662 0.000000
0.358438 0.111686 0.000000
0.458778 0.055419 0.000000
0.596120 0.073779 0.000000
0.331099 0.098452 0.000000
0.476600 0.073763 0.000000
0.314165 0.140638 0.000000
0.150000 -0.075000 0.000000
0.150000 -0.050000 0.000000
0.150000 -0.025000 0.000000
0.150000 0.000000 0.000000
0.953431 0.065481 0.000000
0.901970 0.022200 0.000000
0.958389 0.105866 0.000000
0.927438 0.139412 0.000000
0.944788 0.029613 0.000000
0.942962 0.195800 0.000000
0.850379 0.032659 0.000000
0.913519 0.055287 0.000000
0.833037 0.025938 0.000000
0.802076 0.072239 0.000000
0.808471 0.023883 0.000000
0.621018 0.021136 0.000000
0.738342 0.035748 0.000000
0.769129 0.020094 0.000000
0.613849 0.062109 0.000000
0.530138 0.093694 0.000000
0.486571 0.043535 0.000000
0.539296 0.070735 0.000000
0.493616 0.070233 0.000000
0.450891 0.039290 0.000000
0.175000 -0.075000 0.000000
0.175000 -0.050000 0.000000
0.175000 -0.025000 0.000000
0.175000 0.000000 0.000000
0.879681 0.297720 0.000000
0.970348 0.055959 0.000000
1.004416 0.104249 0.000000
0.996712 0.063731 0.000000
1.004182 0.035892 0.000000
0.974908 0.150230 0.000000
0.986542 0.024622 0.000000
0.983584 0.074977 0.000000
0.953581 0.146808 0.000000
0.964606 0.028562 0.000000
0.900614 0.076445 0.000000
0.944045 0.099454 0.000000
0.833787 0.065530 0.000000
0.769665 0.058016 0.000000
0.705933 0.065525 0.000000
0.860827 0.068631 0.000000
0.782680 0.038916 0.000000
0.647328 0.060680 0.000000
0.598832 0.109263 0.000000
0.612024 0.082714 0.000000
0.200000 -0.075000 0.000000
0.200000 -0.050000 0.000000
0.200000 -0.025000 0.000000
0.200000 0.000000 0.000000
0.924063 0.617317 0.000000
0.998130 0.143240 0.000000
0.950868 0.426655 0.000000
0.989645 0.165696 0.000000
0.954617 0.269823 0.000000
0.959434 0.295204 0.000000
0.962190 0.309387 0.000000
1.003156 0.221782 0.000000
0.987209 0.122922 0.000000
0.930332 0.281007 0.000000
0.992997 0.204369 0.000000
0.923622 0.026976 0.000000
0.960471 0.229934 0.000000
0.932374 0.063432 0.000000
0.782905 0.085683 0.000000
0.856392 0.087893 0.000000
0.906047 0.105966 0.000000
0.806828 0.045439 0.000000
0.756924 0.048853 0.000000
0.684186 0.066952 0.000000
0.225000 -0.075000 0.000000
0.225000 -0.050000 0.000000
0.225000 -0.025000 0.000000
0.225000 0.000000 0.000000
0.986091 0.268594 0.000000
0.974481 0.909938 0.000000
0.980165 0.244271 0.000000
0.906766 0.389700 0.000000
0.904196 0.246618 0.000000
0.917474 0.424780 0.000000
0.965183 0.424361 0.000000
0.992582 0.328948 0.000000
0.999585 0.272188 0.000000
0.969985 0.347735 0.000000
0.987842 0.315062 0.000000
0.944647 0.357395 0.000000
0.863597 0.285733 0.000000
0.907463 0.287099 0.000000
0.970990 0.178890 0.000000
0.977426 0.212469 0.000000
0.954144 0.182577 0.000000
0.923368 0.089642 0.000000
0.836742 0.080887 0.000000
0.730774 0.052660 0.000000
0.250000 -0.075000 0.000000
0.250000 -0.050000 0.000000
0.250000 -0.025000 0.000000
0.250000 0.000000 0.000000
0.989491 0.835025 0.000000
0.910861 0.749963 0.000000
0.928338 0.460720 0.000000
0.954765 0.464349 0.000000
0.862315 0.836350 0.000000
0.988089 0.525998 0.000000
0.859310 0.733289 0.000000
0.916846 0.650997 0.000000
0.834044 0.447649 0.000000
0.974680 0.406485 0.000000
0.903611 0.299916 0.000000
0.927716 0.329924 0.000000
0.953256 0.377378 0.000000
0.800171 0.252816 0.000000
0.927418 0.310823 0.000000
0.905648 0.169821 0.000000
0.952934 0.243010 0.000000
0.980493 0.102397 0.000000
0.941379 0.133386 0.000000
0.895793 0.097597 0.000000
0.275000 -0.075000 0.000000
0.275000 -0.050000 0.000000
0.275000 -0.025000 0.000000
0.275000 0.000000 0.000000
0.300000 -0.075000 0.000000
0.300000 -0.050000 0.000000
0.300000 -0.025000 0.000000
0.300000 0.000000 0.000000
0.325000 -0.075000 0.000000
0.325000 -0.050000 0.000000
0.325000 -0.025000 0.000000
0.325000 0.000000 0.000000
0.350000 -0.075000 0.000000
0.350000 -0.050000 0.000000
0.350000 -0.025000 0.000000
0.350000 0.000000 0.000000
0.375000 -0.075000 0.000000
0.375000 -0.050000 0.000000
0.375000 -0.025000 0.000000
0.375000 0.000000 0.000000
0.400000 -0.075000 0.000000
0.400000 -0.050000 0.000000
0.400000 -0.025000 0.000000
0.400000 0.000000 0.000000
0.425000 -0.075000 0.000000
0.425000 -0.050000 0.000000
0.425000 -0.025000 0.000000
0.425000 0.000000 0.000000
0.450000 -0.075000 0.000000
0.450000 -0.050000 0.000000
0.450000 -0.025000 0.000000
0.450000 0.000000 0.000000
0.475000 -0.075000 0.000000
0.475000 -0.050000 0.000000
0.475000 -0.025000 0.000000
0.475000 0.000000 0.000000
0.500000 -0.075000 0.000000
0.500000 -0.050000 0.000000
0.500000 -0.025000 0.000000
0.500000 0.000000 0.000000
0.525000 -0.075000 0.000000
0.525000 -0.050000 0.000000
0.525000 -0.025000 0.000000
0.525000 0.000000 0.000000
0.550000 -0.075000 0.000000
0.550000 -0.050000 0.000000
0.550000 -0.025000 0.000000
0.550000 0.000000 0.000000
0.575000 -0.075000 0.000000
0.575000 -0.050000 0.000000
0.575000 -0.025000 0.000000
0.575000 0.000000 0.000000
0.600000 -0.075000 0.000000
0.600000 -0.050000 0.000000
0.600000 -0.025000 0.000000
0.600000 0.000000 0.000000
0.625000 -0.075000 0.000000
0.625000 -0.050000 0.000000
0.625000 -0.025000 0.000000
0.625000 0.000000 0.000000
0.650000 -0.075000 0.000000
0.650000 -0.050000 0.000000
0.650000 -0.025000 0.000000
0.650000 0.000000 0.000000
0.675000 -0.075000 0.000000
0.675000 -0.050000 0.000000
0.675000 -0.025000 0.000000
0.675000 0.000000 0.000000
0.700000 -0.075000 0.000000
0.700000 -0.050000 0.000000
0.700000 -0.025000 0.000000
0.700000 0.000000 0.000000
0.725000 -0.075000 0.000000
0.725000 -0.050000 0.000000
0.725000 -0.025000 0.000000
0.725000 0.000000 0.000000
0.750000 -0.075000 0.000000
0.750000 -0.050000 0.000000
0.750000 -0.025000 0.000000
0.750000 0.000000 0.000000
0.775000 -0.075000 0.000000
0.775000 -0.050000 0.000000
0.775000 -0.025000 0.000000
0.775000 0.000000 0.000000
0.800000 -0.075000 0.000000
0.800000 -0.050000 0.000000
0.800000 -0.025000 0.000000
0.800000 0.000000 0.000000
0.825000 -0.075000 0.000000
0.825000 -0.050000 0.000000
0.825000 -0.025000 0.000000
0.825000 0.000000 0.000000
0.850000 -0.075000 0.000000
0.850000 -0.050000 0.000000
0.850000 -0.025000 0.000000
0.850000 0.000000 0.000000
0.875000 -0.075000 0.000000
0.875000 -0.050000 0.000000
0.875000 -0.025000 0.000000
0.875000 0.000000 0.000000
0.900000 -0.075000 0.000000
0.900000 -0.050000 0.000000
0.900000 -0.025000 0.000000
0.900000 0.000000 0.000000
0.925000 -0.075000 0.000000
0.925000 -0.050000 0.000000
0.925000 -0.025000 0.000000
0.925000 0.000000 0.000000
0.950000 -0.075000 0.000000
0.950000 -0.050000 0.000000
0.950000 -0.025000 0.000000
0.950000 0.000000 0.000000
0.975000 -0.075000 0.000000
0.975000 -0.050000 0.000000
0.975000 -0.025000 0.000000
0.975000 0.000000 0.000000
1.000000 -0.075000 0.000000
1.000000 -0.050000 0.000000
1.000000 -0.025000 0.000000
1.000000 0.000000 0.000000
1.025000 -0.075000 0.000000
1.025000 -0.050000 0.000000
1.025000 -0.025000 0.000000
1.025000 0.000000 0.000000
1.025000 0.025000 0.000000
1.025000 0.050000 0.000000
1.025000 0.075000 0.000000
1.025000 0.100000 0.000000
1.025000 0.125000 0.000000
1.025000 0.150000 0.000000
1.025000 0.175000 0.000000
1.025000 0.200000 0.000000
1.025000 0.225000 0.000000
1.025000 0.250000 0.000000
1.025000 0.275000 0.000000
1.025000 0.300000 0.000000
1.025000 0.325000 0.000000
1.025000 0.350000 0.000000
1.025000 0.375000 0.000000
1.025000 0.400000 0.000000
1.025000 0.425000 0.000000
1.025000 0.450000 0.000000
1.025000 0.475000 0.000000
1.025000 0.500000 0.000000
1.025000 0.525000 0.000000
1.025000 0.550000 0.000000
1.025000 0.575000 0.000000
1.025000 0.600000 0.000000
1.050000 -0.075000 0.000000
1.050000 -0.050000 0.000000
1.050000 -0.025000 0.000000
1.050000 0.000000 0.000000
1.050000 0.025000 0.000000
1.050000 0.050000 0.000000
1.050000 0.075000 0.000000
1.050000 0.100000 0.000000
1.050000 0.125000 0.000000
1.050000 0.150000 0.000000
1.050000 0.175000 0.000000
1.050000 0.200000 0.000000
1.050000 0.225000 0.000000
1.050000 0.250000 0.000000
1.050000 0.275000 0.000000
1.050000 0.300000 0.000000
1.050000 0.325000 0.000000
1.050000 0.350000 0.000000
1.050000 0.375000 0.000000
1.050000 0.400000 0.000000
1.050000 0.425000 0.000000
1.050000 0.450000 0.000000
1.050000 0.475000 0.000000
1.050000 0.500000 0.000000
1.050000 0.525000 0.000000
1.050000 0.550000 0.000000
1.050000 0.575000 0.000000
1.050000 0.600000 0.000000
1.075000 -0.075000 0.000000
1.075000 -0.050000 0.000000
1.075000 -0.025000 0.000000
1.075000 0.000000 0.000000
1.075000 0.025000 0.000000
1.075000 0.050000 0.000000
1.075000 0.075000 0.000000
1.075000 0.100000 0.000000
1.075000 0.125000 0.000000
1.075000 0.150000 0.000000
1.075000 0.175000 0.000000
1.075000 0.200000 0.000000
1.075000 0.225000 0.000000
1.075000 0.250000 0.000000
1.075000 0.275000 0.000000
1.075000 0.300000 0.000000
1.075000 0.325000 0.000000
1.075000 0.350000 0.000000
1.075000 0.375000 0.000000
1.075000 0.400000 0.000000
1.075000 0.425000 0.000000
1.075000 0.450000 0.000000
1.075000 0.475000 0.000000
1.075000 0.500000 0.000000
1.075000 0.525000 0.000000
1.075000 0.550000 0.000000
1.075000 0.575000 0.000000
1.075000 0.600000 0.000000
1.100000 -0.075000 0.000000
1.100000 -0.050000 0.000000
1.100000 -0.025000 0.000000
1.100000 0.000000 0.000000
1.100000 0.025000 0.000000
1.100000 0.050000 0.000000
1.100000 0.075000 0.000000
1.100000 0.100000 0.000000
1.100000 0.125000 0.000000
1.100000 0.150000 0.000000
1.100000 0.175000 0.000000
1.100000 0.200000 0.000000
1.100000 0.225000 0.000000
1.100000 0.250000 0.000000
1.100000 0.275000 0.000000
1.100000 0.300000 0.000000
1.100000 0.325000 0.000000
1.100000 0.350000 0.000000
1.100000 0.375000 0.000000
1.100000 0.400000 0.000000
1.100000 0.425000 0.000000
1.100000 0.450000 0.000000
1.100000 0.475000 0.000000
1.100000 0.500000 0.000000
1.100000 0.525000 0.000000
1.100000 0.550000 0.000000
1.100000 0.575000 0.000000
1.100000 0.600000 0.000000
</DataArray>
</Points>
<PointData>
<DataArray NumberOfComponents='1' type='Int32' Name='ParticleType' format='ascii'>
3
3
3
3
3
3
3
3
3
3
3
3
3
3
3
3
3
3
3
3
3
3
3
3
3
3
2
2
3
3
3
3
3
3
3
3
3
3
3
3
3
3
3
3
3
3
3
3
3
3
3
3
3
3
2
2
3
3
2
2
2
2
2
2
2
2
2
2
2
2
2
2
2
2
2
2
2
2
2
2
2
2
2
2
3
3
2
2
2
2
2
2
2
2
2
2
2
2
2
2
2
2
2
2
2
2
2
2
2
2
2
2
3
3
2
2
0
0
0
0
0
0
0
0
0
0
0
0
0
0
0
0
0
0
0
0
3
3
2
2
0
0
0
0
0
0
0
0
0
0
0
0
0
0
0
0
0
0
0
0
3
3
2
2
0
0
0
0
0
0
0
0
0
0
0
0
0
0
0
0
0
0
0
0
3
3
2
2
0
0
0
0
0
0
0
0
0
0
0
0
0
0
0
0
0
0
0
0
3
3
2
2
0
0
0
0
0
0
0
0
0
0
0
0
0
0
0
0
0
0
0
0
3
3
2
2
0
0
0
0
0
0
0
0
0
0
0
0
0
0
0
0
0
0
0
0
3
3
2
2
0
0
0
0
0
0
0
0
0
0
0
0
0
0
0
0
0
0
0
0
3
3
2
2
0
0
0
0
0
0
0
0
0
0
0
0
0
0
0
0
0
0
0
0
3
3
2
2
0
0
0
0
0
0
0
0
0
0
0
0
0
0
0
0
0
0
0
0
3
3
2
2
0
0
0
0
0
0
0
0
0
0
0
0
0
0
0
0
0
0
0
0
3
3
2
2
3
3
2
2
3
3
2
2
3
3
2
2
3
3
2
2
3
3
2
2
3
3
2
2
3
3
2
2
3
3
2
2
3
3
2
2
3
3
2
2
3
3
2
2
3
3
2
2
3
3
2
2
3
3
2
2
3
3
2
2
3
3
2
2
3
3
2
2
3
3
2
2
3
3
2
2
3
3
2
2
3
3
2
2
3
3
2
2
3
3
2
2
3
3
2
2
3
3
2
2
3
3
2
2
3
3
2
2
3
3
2
2
3
3
2
2
3
3
2
2
2
2
2
2
2
2
2
2
2
2
2
2
2
2
2
2
2
2
2
2
2
2
2
2
3
3
2
2
2
2
2
2
2
2
2
2
2
2
2
2
2
2
2
2
2
2
2
2
2
2
2
2
3
3
3
3
3
3
3
3
3
3
3
3
3
3
3
3
3
3
3
3
3
3
3
3
3
3
2
2
3
3
3
3
3
3
3
3
3
3
3
3
3
3
3
3
3
3
3
3
3
3
3
3
3
3
2
2
</DataArray>
<DataArray NumberOfComponents='1' type='Float32' Name='Velocity' format='ascii'>
0.000000
0.000000
0.000000
0.000000
0.000000
0.000000
0.000000
0.000000
0.000000
0.000000
0.000000
0.000000
0.000000
0.000000
0.000000
0.000000
0.000000
0.000000
0.000000
0.000000
0.000000
0.000000
0.000000
0.000000
0.000000
0.000000
0.000000
0.000000
0.000000
0.000000
0.000000
0.000000
0.000000
0.000000
0.000000
0.000000
0.000000
0.000000
0.000000
0.000000
0.000000
0.000000
0.000000
0.000000
0.000000
0.000000
0.000000
0.000000
0.000000
0.000000
0.000000
0.000000
0.000000
0.000000
0.000000
0.000000
0.000000
0.000000
0.000000
0.000000
0.000000
0.000000
0.000000
0.000000
0.000000
0.000000
0.000000
0.000000
0.000000
0.000000
0.000000
0.000000
0.000000
0.000000
0.000000
0.000000
0.000000
0.000000
0.000000
0.000000
0.000000
0.000000
0.000000
0.000000
0.000000
0.000000
0.000000
0.000000
0.000000
0.000000
0.000000
0.000000
0.000000
0.000000
0.000000
0.000000
0.000000
0.000000
0.000000
0.000000
0.000000
0.000000
0.000000
0.000000
0.000000
0.000000
0.000000
0.000000
0.000000
0.000000
0.000000
0.000000
0.000000
0.000000
0.000000
0.000000
0.199179
0.241664
0.432933
0.333643
0.416367
0.049723
0.656537
0.617493
0.164072
0.435833
0.263088
0.283339
0.090324
0.102488
0.114168
0.155763
0.458861
0.135144
0.484142
0.160237
0.000000
0.000000
0.000000
0.000000
0.455636
0.554326
1.044740
0.415308
0.481796
0.700083
0.758183
0.993186
0.956077
0.428496
1.386046
0.682872
0.151907
1.344152
0.198521
0.433314
0.256027
0.765807
0.456677
0.567450
0.000000
0.000000
0.000000
0.000000
0.355561
0.354785
0.814094
0.651406
1.115288
0.952050
1.009980
0.760836
1.292301
1.344087
0.870333
0.573712
0.607207
0.714217
0.723395
0.675351
0.516707
0.966684
0.649287
0.255407
0.000000
0.000000
0.000000
0.000000
0.860075
0.343242
1.333786
1.750611
0.540271
1.142589
1.233245
1.246672
1.218980
1.457375
0.713704
0.505518
0.935372
1.318081
0.929350
0.730830
1.149079
1.283752
0.603715
0.948389
0.000000
0.000000
0.000000
0.000000
1.544400
1.567263
1.272693
1.384902
1.311944
0.307541
1.544120
1.883545
1.528605
1.274017
1.615164
1.581699
1.346442
1.060664
0.824933
1.152431
1.711222
1.125729
1.449734
0.750954
0.000000
0.000000
0.000000
0.000000
0.904464
0.987319
1.354103
2.207481
0.716506
1.757216
1.514842
1.310880
1.900347
1.364174
1.773528
1.552164
1.737465
1.346735
1.469931
1.362937
1.137389
1.408446
1.304448
0.830943
0.000000
0.000000
0.000000
0.000000
1.455103
0.660683
1.357832
0.453102
0.565495
1.764311
0.516688
0.571517
1.368493
0.386224
1.260858
1.483981
1.951933
1.770692
1.548955
1.674775
2.009244
1.764590
1.525782
1.657892
0.000000
0.000000
0.000000
0.000000
1.778286
1.987222
1.173101
1.845209
1.282353
1.455323
1.495857
1.931558
1.219801
1.232766
1.404846
0.662613
1.658962
0.835072
1.634310
1.842633
1.624788
1.772651
1.752392
1.617230
0.000000
0.000000
0.000000
0.000000
1.370912
2.780063
1.297202
0.769153
1.682828
0.951384
1.256252
1.335711
0.929813
1.265274
1.282551
1.053378
1.222157
1.082120
1.990646
1.885086
1.768698
1.216149
1.838879
1.646289
0.000000
0.000000
0.000000
0.000000
2.049043
2.113561
1.287056
1.376472
2.310455
1.469709
2.051395
1.754351
1.130972
1.228544
0.615297
0.886595
1.265109
1.039005
0.734006
0.581587
1.868688
1.052423
1.420776
1.579569
0.000000
0.000000
0.000000
0.000000
0.000000
0.000000
0.000000
0.000000
0.000000
0.000000
0.000000
0.000000
0.000000
0.000000
0.000000
0.000000
0.000000
0.000000
0.000000
0.000000
0.000000
0.000000
0.000000
0.000000
0.000000
0.000000
0.000000
0.000000
0.000000
0.000000
0.000000
0.000000
0.000000
0.000000
0.000000
0.000000
0.000000
0.000000
0.000000
0.000000
0.000000
0.000000
0.000000
0.000000
0.000000
0.000000
0.000000
0.000000
0.000000
0.000000
0.000000
0.000000
0.000000
0.000000
0.000000
0.000000
0.000000
0.000000
0.000000
0.000000
0.000000
0.000000
0.000000
0.000000
0.000000
0.000000
0.000000
0.000000
0.000000
0.000000
0.000000
0.000000
0.000000
0.000000
0.000000
0.000000
0.000000
0.000000
0.000000
0.000000
0.000000
0.000000
0.000000
0.000000
0.000000
0.000000
0.000000
0.000000
0.000000
0.000000
0.000000
0.000000
0.000000
0.000000
0.000000
0.000000
0.000000
0.000000
0.000000
0.000000
0.000000
0.000000
0.000000
0.000000
0.000000
0.000000
0.000000
0.000000
0.000000
0.000000
0.000000
0.000000
0.000000
0.000000
0.000000
0.000000
0.000000
0.000000
0.000000
0.000000
0.000000
0.000000
0.000000
0.000000
0.000000
0.000000
0.000000
0.000000
0.000000
0.000000
0.000000
0.000000
0.000000
0.000000
0.000000
0.000000
0.000000
0.000000
0.000000
0.000000
0.000000
0.000000
0.000000
0.000000
0.000000
0.000000
0.000000
0.000000
0.000000
0.000000
0.000000
0.000000
0.000000
0.000000
0.000000
0.000000
0.000000
0.000000
0.000000
0.000000
0.000000
0.000000
0.000000
0.000000
0.000000
0.000000
0.000000
0.000000
0.000000
0.000000
0.000000
0.000000
0.000000
0.000000
0.000000
0.000000
0.000000
0.000000
0.000000
0.000000
0.000000
0.000000
0.000000
0.000000
0.000000
0.000000
0.000000
0.000000
0.000000
0.000000
0.000000
0.000000
0.000000
0.000000
0.000000
0.000000
0.000000
0.000000
0.000000
0.000000
0.000000
0.000000
0.000000
0.000000
0.000000
0.000000
0.000000
0.000000
0.000000
0.000000
0.000000
0.000000
0.000000
0.000000
0.000000
0.000000
0.000000
0.000000
0.000000
0.000000
0.000000
0.000000
0.000000
0.000000
0.000000
0.000000
0.000000
0.000000
0.000000
0.000000
0.000000
0.000000
</DataArray>
<DataArray NumberOfComponents='1' type='Float32' Name='pressure' format='ascii'>
0.000000
0.000000
0.000000
0.000000
0.000000
0.000000
0.000000
0.000000
0.000000
0.000000
0.000000
0.000000
0.000000
0.000000
0.000000
0.000000
0.000000
0.000000
0.000000
0.000000
0.000000
0.000000
0.000000
0.000000
0.000000
0.000000
0.000000
0.000000
0.000000
0.000000
0.000000
0.000000
0.000000
0.000000
0.000000
0.000000
0.000000
0.000000
0.000000
0.000000
0.000000
0.000000
0.000000
0.000000
0.000000
0.000000
0.000000
0.000000
0.000000
0.000000
0.000000
0.000000
0.000000
0.000000
0.000000
0.000000
0.000000
0.000000
1076.238159
885.494812
1123.663574
131.193695
0.000000
0.000000
0.000000
0.000000
0.000000
0.000000
0.000000
0.000000
0.000000
0.000000
0.000000
0.000000
0.000000
0.000000
0.000000
0.000000
0.000000
0.000000
0.000000
0.000000
0.000000
0.000000
0.000000
0.000000
1332.853882
483.676819
426.574341
0.000000
0.000000
0.000000
0.000000
0.000000
0.000000
0.000000
0.000000
0.000000
0.000000
0.000000
0.000000
0.000000
0.000000
0.000000
0.000000
0.000000
0.000000
0.000000
0.000000
0.000000
0.000000
0.000000
0.000000
0.000000
2564.747803
911.631409
1022.313904
0.000000
0.000000
990.193298
1328.036011
1771.832031
211.614914
536.298340
1129.933472
1238.646973
860.835876
0.000000
300.636963
801.426392
404.552063
1065.969482
469.517303
0.000000
0.000000
0.000000
0.000000
0.000000
3414.430664
1851.080811
450.700012
561.901001
0.000000
0.000000
0.000000
0.000000
0.000000
984.498230
457.774231
370.386444
0.000000
1118.874634
245.791870
378.343842
0.000000
0.000000
0.000000
274.531982
0.000000
0.000000
0.000000
0.000000
2709.489502
378.707031
868.911438
0.000000
0.000000
491.506073
1360.771606
0.000000
725.554565
1217.782715
0.000000
0.000000
0.000000
846.750061
0.000000
0.000000
111.676323
0.000000
0.000000
0.000000
0.000000
0.000000
0.000000
0.000000
2370.905029
1279.158936
0.000000
0.000000
0.000000
0.000000
0.000000
0.000000
0.000000
0.000000
519.277588
0.000000
328.037476
0.000000
0.000000
0.000000
0.000000
0.000000
0.000000
0.000000
0.000000
0.000000
0.000000
0.000000
2614.831299
2293.236572
0.000000
0.000000
568.297058
647.508728
1375.768555
0.000000
0.000000
0.000000
61.718933
0.000000
0.000000
0.000000
0.000000
0.000000
0.000000
692.781799
0.000000
0.000000
0.000000
0.000000
0.000000
0.000000
203.127304
0.000000
640.204834
2192.563965
1008.310425
0.000000
2773.126953
0.000000
905.893677
3358.656738
0.000000
0.000000
0.000000
0.000000
0.000000
0.000000
0.000000
0.000000
951.354492
0.000000
0.000000
257.059845
0.000000
0.000000
1029.934082
1351.039795
0.000000
1152.435669
0.000000
896.245056
2913.926514
2153.149902
2097.886963
1207.010742
0.000000
2847.985352
177.190979
633.015320
0.000000
0.000000
0.000000
1044.330078
178.478134
0.000000
0.000000
0.000000
0.000000
0.000000
1007.833069
1210.547241
0.000000
0.000000
0.000000
0.000000
0.000000
0.000000
0.000000
0.000000
416.558990
0.000000
0.000000
2112.429932
0.000000
1802.548706
0.000000
0.000000
0.000000
0.000000
259.414856
0.000000
0.000000
0.000000
154.649170
443.725342
0.000000
0.000000
0.000000
0.000000
0.000000
0.000000
0.000000
0.000000
0.000000
0.000000
0.000000
0.000000
0.000000
0.000000
0.000000
84.273659
0.000000
1112.465088
0.000000
0.000000
0.000000
0.000000
1424.769165
1699.127441
0.000000
0.000000
0.000000
0.000000
0.000000
0.000000
0.000000
0.000000
0.000000
0.000000
0.000000
0.000000
0.000000
0.000000
0.000000
0.000000
0.000000
0.000000
0.000000
0.000000
0.000000
0.000000
958.995605
479.609161
0.000000
0.000000
1699.478882
0.000000
0.000000
0.000000
2327.532715
1147.256958
0.000000
0.000000
1918.902100
0.000000
0.000000
0.000000
310.433350
0.000000
0.000000
0.000000
2642.374756
1366.292236
0.000000
0.000000
3147.507080
74.166748
0.000000
0.000000
3697.007080
1926.764404
0.000000
0.000000
535.419495
0.000000
0.000000
0.000000
0.000000
0.000000
0.000000
0.000000
1041.725830
406.622437
0.000000
0.000000
735.045654
834.907227
0.000000
0.000000
0.000000
0.000000
0.000000
0.000000
277.893860
0.000000
0.000000
0.000000
1503.883301
36.200222
0.000000
0.000000
940.117371
0.000000
0.000000
0.000000
1698.088379
0.000000
0.000000
0.000000
2126.862549
0.000000
0.000000
0.000000
2424.077393
0.000000
0.000000
0.000000
1568.950195
0.000000
0.000000
0.000000
2737.203613
869.742615
0.000000
0.000000
1070.949707
473.733032
0.000000
0.000000
751.068909
653.623108
0.000000
0.000000
1180.012329
1596.375610
0.000000
0.000000
3202.888916
2956.061523
0.000000
0.000000
3456.997070
4683.027832
0.000000
0.000000
1032.987427
2015.540649
0.000000
0.000000
0.000000
0.000000
0.000000
0.000000
0.000000
0.000000
0.000000
0.000000
0.000000
0.000000
0.000000
0.000000
0.000000
0.000000
1270.114380
0.000000
0.000000
92.989784
0.000000
0.000000
0.000000
0.000000
0.000000
0.000000
0.000000
0.000000
0.000000
0.000000
0.000000
0.000000
0.000000
0.000000
0.000000
0.000000
0.000000
0.000000
0.000000
0.000000
0.000000
0.000000
0.000000
253.231308
1615.410278
1276.420776
0.000000
1690.863403
0.000000
0.000000
0.000000
0.000000
811.565491
0.000000
0.000000
0.000000
0.000000
0.000000
0.000000
0.000000
0.000000
0.000000
0.000000
0.000000
0.000000
0.000000
0.000000
0.000000
0.000000
0.000000
0.000000
0.000000
0.000000
0.000000
0.000000
0.000000
0.000000
0.000000
0.000000
0.000000
0.000000
0.000000
0.000000
0.000000
0.000000
0.000000
0.000000
0.000000
0.000000
0.000000
0.000000
0.000000
0.000000
0.000000
0.000000
0.000000
0.000000
0.000000
0.000000
0.000000
0.000000
0.000000
0.000000
0.000000
0.000000
0.000000
0.000000
0.000000
0.000000
0.000000
0.000000
0.000000
0.000000
0.000000
0.000000
0.000000
0.000000
0.000000
0.000000
0.000000
0.000000
0.000000
0.000000
0.000000
</DataArray>
</PointData>
<Cells>
<DataArray type='Int32' Name='connectivity' format='ascii'>
0
1
2
3
4
5
6
7
8
9
10
11
12
13
14
15
16
17
18
19
20
21
22
23
24
25
26
27
28
29
30
31
32
33
34
35
36
37
38
39
40
41
42
43
44
45
46
47
48
49
50
51
52
53
54
55
56
57
58
59
60
61
62
63
64
65
66
67
68
69
70
71
72
73
74
75
76
77
78
79
80
81
82
83
84
85
86
87
88
89
90
91
92
93
94
95
96
97
98
99
100
101
102
103
104
105
106
107
108
109
110
111
112
113
114
115
116
117
118
119
120
121
122
123
124
125
126
127
128
129
130
131
132
133
134
135
136
137
138
139
140
141
142
143
144
145
146
147
148
149
150
151
152
153
154
155
156
157
158
159
160
161
162
163
164
165
166
167
168
169
170
171
172
173
174
175
176
177
178
179
180
181
182
183
184
185
186
187
188
189
190
191
192
193
194
195
196
197
198
199
200
201
202
203
204
205
206
207
208
209
210
211
212
213
214
215
216
217
218
219
220
221
222
223
224
225
226
227
228
229
230
231
232
233
234
235
236
237
238
239
240
241
242
243
244
245
246
247
248
249
250
251
252
253
254
255
256
257
258
259
260
261
262
263
264
265
266
267
268
269
270
271
272
273
274
275
276
277
278
279
280
281
282
283
284
285
286
287
288
289
290
291
292
293
294
295
296
297
298
299
300
301
302
303
304
305
306
307
308
309
310
311
312
313
314
315
316
317
318
319
320
321
322
323
324
325
326
327
328
329
330
331
332
333
334
335
336
337
338
339
340
341
342
343
344
345
346
347
348
349
350
351
352
353