<?xml version='1.0' encoding='UTF-8'?>
<VTKFile xmlns='VTK' byte_order='LittleEndian' version='0.1' type='UnstructuredGrid'>
<UnstructuredGrid>
<Piece NumberOfCells='584' NumberOfPoints='584'>
<Points>
<DataArray NumberOfComponents='3' type='Float32' Name='Position' format='ascii'>
-0.075000 -0.075000 0.000000
-0.075000 -0.050000 0.000000
-0.075000 -0.025000 0.000000
-0.075000 0.000000 0.000000
-0.075000 0.025000 0.000000
-0.075000 0.050000 0.000000
-0.075000 0.075000 0.000000
-0.075000 0.100000 0.000000
-0.075000 0.125000 0.000000
-0.075000 0.150000 0.000000
-0.075000 0.175000 0.000000
-0.075000 0.200000 0.000000
-0.075000 0.225000 0.000000
-0.075000 0.250000 0.000000
-0.075000 0.275000 0.000000
-0.075000 0.300000 0.000000
-0.075000 0.325000 0.000000
-0.075000 0.350000 0.000000
-0.075000 0.375000 0.000000
-0.075000 0.400000 0.000000
-0.075000 0.425000 0.000000
-0.075000 0.450000 0.000000
-0.075000 0.475000 0.000000
-0.075000 0.500000 0.000000
-0.075000 0.525000 0.000000
-0.075000 0.550000 0.000000
-0.075000 0.575000 0.000000
-0.075000 0.600000 0.000000
-0.050000 -0.075000 0.000000
-0.050000 -0.050000 0.000000
-0.050000 -0.025000 0.000000
-0.050000 0.000000 0.000000
-0.050000 0.025000 0.000000
-0.050000 0.050000 0.000000
-0.050000 0.075000 0.000000
-0.050000 0.100000 0.000000
-0.050000 0.125000 0.000000
-0.050000 0.150000 0.000000
-0.050000 0.175000 0.000000
-0.050000 0.200000 0.000000
-0.050000 0.225000 0.000000
-0.050000 0.250000 0.000000
-0.050000 0.275000 0.000000
-0.050000 0.300000 0.000000
-0.050000 0.325000 0.000000
-0.050000 0.350000 0.000000
-0.050000 0.375000 0.000000
-0.050000 0.400000 0.000000
-0.050000 0.425000 0.000000
-0.050000 0.450000 0.000000
-0.050000 0.475000 0.000000
-0.050000 0.500000 0.000000
-0.050000 0.525000 0.000000
-0.050000 0.550000 0.000000
-0.050000 0.575000 0.000000
-0.050000 0.600000 0.000000
-0.025000 -0.075000 0.000000
-0.025000 -0.050000 0.000000
-0.025000 -0.025000 0.000000
-0.025000 0.000000 0.000000
-0.025000 0.025000 0.000000
-0.025000 0.050000 0.000000
-0.025000 0.075000 0.000000
-0.025000 0.100000 0.000000
-0.025000 0.125000 0.000000
-0.025000 0.150000 0.000000
-0.025000 0.175000 0.000000
-0.025000 0.200000 0.000000
-0.025000 0.225000 0.000000
-0.025000 0.250000 0.000000
-0.025000 0.275000 0.000000
-0.025000 0.300000 0.000000
-0.025000 0.325000 0.000000
-0.025000 0.350000 0.000000
-0.025000 0.375000 0.000000
-0.025000 0.400000 0.000000
-0.025000 0.425000 0.000000
-0.025000 0.450000 0.000000
-0.025000 0.475000 0.000000
-0.025000 0.500000 0.000000
-0.025000 0.525000 0.000000
-0.025000 0.550000 0.000000
-0.025000 0.575000 0.000000
-0.025000 0.600000 0.000000
0.000000 -0.075000 0.000000
0.000000 -0.050000 0.000000
0.000000 -0.025000 0.000000
0.000000 0.000000 0.000000
0.000000 0.025000 0.000000
0.000000 0.050000 0.000000
0.000000 0.075000 0.000000
0.000000 0.100000 0.000000
0.000000 0.125000 0.000000
0.000000 0.150000 0.000000
0.000000 0.175000 0.000000
0.000000 0.200000 0.000000
0.000000 0.225000 0.000000
0.000000 0.250000 0.000000
0.000000 0.275000 0.000000
0.000000 0.300000 0.000000
0.000000 0.325000 0.000000
0.000000 0.350000 0.000000
0.000000 0.375000 0.000000
0.000000 0.400000 0.000000
0.000000 0.425000 0.000000
0.000000 0.450000 0.000000
0.000000 0.475000 0.000000
0.000000 0.500000 0.000000
0.000000 0.525000 0.000000
0.000000 0.550000 0.000000
0.000000 0.575000 0.000000
0.000000 0.600000 0.000000
0.025000 -0.075000 0.000000
0.025000 -0.050000 0.000000
0.025000 -0.025000 0.000000
0.025000 0.000000 0.000000
0.252917 0.025404 0.000000
0.232708 0.026061 0.000000
0.206479 0.032411 0.000000
0.160163 0.020874 0.000000
0.351298 0.027617 0.000000
0.069540 0.025494 0.000000
0.453091 0.026698 0.000000
0.289480 0.020812 0.000000
0.190441 0.023987 0.000000
0.152435 0.056653 0.000000
0.242880 0.056269 0.000000
0.168499 0.046942 0.000000
0.139774 0.033434 0.000000
0.038084 0.018643 0.000000
0.021120 0.042291 0.000000
0.033138 0.058091 0.000000
0.096436 0.023559 0.000000
0.073735 0.044644 0.000000
0.068252 0.061193 0.000000
0.116341 0.028501 0.000000
0.050000 -0.075000 0.000000
0.050000 -0.050000 0.000000
0.050000 -0.025000 0.000000
0.050000 0.000000 0.000000
0.313365 0.026728 0.000000
0.497441 0.073361 0.000000
0.620097 0.039702 0.000000
0.577892 0.053655 0.000000
0.596195 0.049137 0.000000
0.657364 0.052164 0.000000
0.516131 0.021975 0.000000
0.743539 0.089225 0.000000
0.376195 0.023773 0.000000
0.374657 0.065003 0.000000
0.540265 0.076872 0.000000
0.440458 0.059065 0.000000
0.048201 0.050843 0.000000
0.415048 0.016297 0.000000
0.224510 0.054472 0.000000
0.269624 0.041504 0.000000
0.172673 0.070260 0.000000
0.279890 0.063930 0.000000
0.110522 0.057668 0.000000
0.123295 0.056243 0.000000
0.075000 -0.075000 0.000000
0.075000 -0.050000 0.000000
0.075000 -0.025000 0.000000
0.075000 0.000000 0.000000
0.331406 0.030711 0.000000
0.533915 0.046926 0.000000
0.540326 0.022912 0.000000
0.480145 0.025005 0.000000
0.840695 0.074960 0.000000
0.832679 0.025894 0.000000
0.854335 0.036892 0.000000
0.658891 0.068458 0.000000
0.772522 0.045695 0.000000
0.764192 0.018902 0.000000
0.595130 0.027582 0.000000
0.459175 0.040868 0.000000
0.424578 0.057169 0.000000
0.342542 0.071851 0.000000
0.342740 0.057740 0.000000
0.295213 0.068035 0.000000
0.295063 0.050928 0.000000
0.487944 0.046732 0.000000
0.402598 0.066333 0.000000
0.200703 0.058537 0.000000
0.100000 -0.075000 0.000000
0.100000 -0.050000 0.000000
0.100000 -0.025000 0.000000
0.100000 0.000000 0.000000
0.628433 0.021052 0.000000
0.570552 0.025596 0.000000
0.791986 0.032836 0.000000
0.923185 0.022452 0.000000
0.403385 0.049503 0.000000
0.895808 0.027207 0.000000
0.938256 0.086422 0.000000
0.873194 0.107443 0.000000
0.873664 0.021521 0.000000
0.890938 0.049686 0.000000
0.666459 0.022150 0.000000
0.682984 0.031142 0.000000
0.798802 0.061339 0.000000
0.811935 0.027837 0.000000
0.703464 0.066329 0.000000
0.378729 0.041816 0.000000
0.731040 0.035614 0.000000
0.775193 0.070397 0.000000
0.549285 0.053120 0.000000
0.504245 0.043304 0.000000
0.125000 -0.075000 0.000000
0.125000 -0.050000 0.000000
0.125000 -0.025000 0.000000
0.125000 0.000000 0.000000
0.932329 0.053844 0.000000
0.898761 0.091769 0.000000
0.993045 0.158999 0.000000
0.963645 0.023217 0.000000
0.981441 0.206756 0.000000
0.701200 0.043461 0.000000
0.891754 0.165878 0.000000
0.951090 0.186439 0.000000
0.926196 0.127413 0.000000
0.904251 0.116744 0.000000
0.948199 0.131604 0.000000
0.889224 0.186451 0.000000
0.837076 0.127506 0.000000
0.743307 0.069304 0.000000
0.673548 0.061863 0.000000
0.751617 0.043783 0.000000
0.914495 0.145058 0.000000
0.576980 0.115631 0.000000
0.840430 0.095732 0.000000
0.619957 0.058385 0.000000
0.150000 -0.075000 0.000000
0.150000 -0.050000 0.000000
0.150000 -0.025000 0.000000
0.150000 0.000000 0.000000
0.865321 0.183296 0.000000
1.001720 0.100228 0.000000
0.968286 0.281469 0.000000
0.818917 0.234677 0.000000
0.999950 0.069421 0.000000
0.837655 0.267763 0.000000
0.978618 0.134803 0.000000
0.847964 0.142174 0.000000
1.003635 0.135217 0.000000
0.950902 0.206939 0.000000
0.975806 0.049487 0.000000
0.911865 0.056438 0.000000
0.943865 0.033832 0.000000
0.959513 0.057476 0.000000
0.921167 0.087665 0.000000
0.860959 0.089221 0.000000
0.836739 0.050778 0.000000
0.886322 0.073482 0.000000
0.865417 0.061760 0.000000
0.717202 0.020760 0.000000
0.175000 -0.075000 0.000000
0.175000 -0.050000 0.000000
0.175000 -0.025000 0.000000
0.175000 0.000000 0.000000
0.512701 0.106408 0.000000
1.004735 0.186615 0.000000
0.997328 0.247085 0.000000
1.002291 0.215945 0.000000
0.979560 0.179292 0.000000
0.878111 0.249558 0.000000
0.995391 0.021974 0.000000
0.906485 0.226015 0.000000
0.850042 0.210895 0.000000
1.001299 0.042629 0.000000
0.933753 0.246722 0.000000
0.968740 0.225092 0.000000
0.800457 0.093503 0.000000
0.969820 0.158257 0.000000
0.954754 0.114856 0.000000
0.872415 0.214004 0.000000
0.981171 0.110723 0.000000
0.922617 0.167553 0.000000
0.866652 0.137510 0.000000
0.923726 0.187981 0.000000
0.200000 -0.075000 0.000000
0.200000 -0.050000 0.000000
0.200000 -0.025000 0.000000
0.200000 0.000000 0.000000
0.814169 0.672328 0.000000
0.852112 0.230054 0.000000
0.870850 0.345797 0.000000
1.001813 0.267382 0.000000
0.886359 0.282931 0.000000
0.919498 0.291379 0.000000
0.959535 0.364185 0.000000
0.969995 0.307921 0.000000
0.924012 0.266748 0.000000
0.783746 0.159583 0.000000
1.003503 0.297930 0.000000
0.982037 0.083246 0.000000
0.738031 0.108232 0.000000
0.846393 0.193489 0.000000
0.920518 0.210992 0.000000
0.890025 0.233186 0.000000
0.963653 0.265731 0.000000
0.873172 0.161078 0.000000
0.944393 0.162432 0.000000
0.959375 0.088055 0.000000
0.225000 -0.075000 0.000000
0.225000 -0.050000 0.000000
0.225000 -0.025000 0.000000
0.225000 0.000000 0.000000
0.885603 0.341339 0.000000
0.952927 1.295969 0.000000
0.940917 0.281431 0.000000
0.740163 0.127067 0.000000
0.540948 0.119233 0.000000
0.758433 0.208829 0.000000
0.918500 0.326433 0.000000
0.997779 0.367622 0.000000
0.945230 0.313195 0.000000
0.854599 0.280868 0.000000
0.987516 0.310661 0.000000
0.810553 0.244935 0.000000
0.566206 0.077655 0.000000
0.813223 0.068628 0.000000
0.859370 0.263369 0.000000
0.900197 0.268122 0.000000
0.780236 0.126934 0.000000
0.812700 0.177986 0.000000
0.828266 0.160828 0.000000
0.808912 0.146685 0.000000
0.250000 -0.075000 0.000000
0.250000 -0.050000 0.000000
0.250000 -0.025000 0.000000
0.250000 0.000000 0.000000
0.956097 0.986540 0.000000
0.787565 0.911641 0.000000
0.778407 0.340989 0.000000
0.864115 0.392061 0.000000
0.643557 1.039263 0.000000
0.893464 0.483352 0.000000
0.667726 0.857828 0.000000
0.753671 0.684824 0.000000
0.601111 0.221309 0.000000
0.923698 0.312278 0.000000
0.716764 0.100578 0.000000
0.787407 0.217224 0.000000
0.852307 0.299950 0.000000
0.720723 0.067254 0.000000
0.807116 0.198614 0.000000
0.888256 0.128366 0.000000
0.642790 0.199136 0.000000
0.937299 0.229601 0.000000
0.795881 0.179575 0.000000
0.976218 0.245109 0.000000
0.275000 -0.075000 0.000000
0.275000 -0.050000 0.000000
0.275000 -0.025000 0.000000
0.275000 0.000000 0.000000
0.300000 -0.075000 0.000000
0.300000 -0.050000 0.000000
0.300000 -0.025000 0.000000
0.300000 0.000000 0.000000
0.325000 -0.075000 0.000000
0.325000 -0.050000 0.000000
0.325000 -0.025000 0.000000
0.325000 0.000000 0.000000
0.350000 -0.075000 0.000000
0.350000 -0.050000 0.000000
0.350000 -0.025000 0.000000
0.350000 0.000000 0.000000
0.375000 -0.075000 0.000000
0.375000 -0.050000 0.000000
0.375000 -0.025000 0.000000
0.375000 0.000000 0.000000
0.400000 -0.075000 0.000000
0.400000 -0.050000 0.000000
0.400000 -0.025000 0.000000
0.400000 0.000000 0.000000
0.425000 -0.075000 0.000000
0.425000 -0.050000 0.000000
0.425000 -0.025000 0.000000
0.425000 0.000000 0.000000
0.450000 -0.075000 0.000000
0.450000 -0.050000 0.000000
0.450000 -0.025000 0.000000
0.450000 0.000000 0.000000
0.475000 -0.075000 0.000000
0.475000 -0.050000 0.000000
0.475000 -0.025000 0.000000
0.475000 0.000000 0.000000
0.500000 -0.075000 0.000000
0.500000 -0.050000 0.000000
0.500000 -0.025000 0.000000
0.500000 0.000000 0.000000
0.525000 -0.075000 0.000000
0.525000 -0.050000 0.000000
0.525000 -0.025000 0.000000
0.525000 0.000000 0.000000
0.550000 -0.075000 0.000000
0.550000 -0.050000 0.000000
0.550000 -0.025000 0.000000
0.550000 0.000000 0.000000
0.575000 -0.075000 0.000000
0.575000 -0.050000 0.000000
0.575000 -0.025000 0.000000
0.575000 0.000000 0.000000
0.600000 -0.075000 0.000000
0.600000 -0.050000 0.000000
0.600000 -0.025000 0.000000
0.600000 0.000000 0.000000
0.625000 -0.075000 0.000000
0.625000 -0.050000 0.000000
0.625000 -0.025000 0.000000
0.625000 0.000000 0.000000
0.650000 -0.075000 0.000000
0.650000 -0.050000 0.000000
0.650000 -0.025000 0.000000
0.650000 0.000000 0.000000
0.675000 -0.075000 0.000000
0.675000 -0.050000 0.000000
0.675000 -0.025000 0.000000
0.675000 0.000000 0.000000
0.700000 -0.075000 0.000000
0.700000 -0.050000 0.000000
0.700000 -0.025000 0.000000
0.700000 0.000000 0.000000
0.725000 -0.075000 0.000000
0.725000 -0.050000 0.000000
0.725000 -0.025000 0.000000
0.725000 0.000000 0.000000
0.750000 -0.075000 0.000000
0.750000 -0.050000 0.000000
0.750000 -0.025000 0.000000
0.750000 0.000000 0.000000
0.775000 -0.075000 0.000000
0.775000 -0.050000 0.000000
0.775000 -0.025000 0.000000
0.775000 0.000000 0.000000
0.800000 -0.075000 0.000000
0.800000 -0.050000 0.000000
0.800000 -0.025000 0.000000
0.800000 0.000000 0.000000
0.825000 -0.075000 0.000000
0.825000 -0.050000 0.000000
0.825000 -0.025000 0.000000
0.825000 0.000000 0.000000
0.850000 -0.075000 0.000000
0.850000 -0.050000 0.000000
0.850000 -0.025000 0.000000
0.850000 0.000000 0.000000
0.875000 -0.075000 0.000000
0.875000 -0.050000 0.000000
0.875000 -0.025000 0.000000
0.875000 0.000000 0.000000
0.900000 -0.075000 0.000000
0.900000 -0.050000 0.000000
0.900000 -0.025000 0.000000
0.900000 0.000000 0.000000
0.925000 -0.075000 0.000000
0.925000 -0.050000 0.000000
0.925000 -0.025000 0.000000
0.925000 0.000000 0.000000
0.950000 -0.075000 0.000000
0.950000 -0.050000 0.000000
0.950000 -0.025000 0.000000
0.950000 0.000000 0.000000
0.975000 -0.075000 0.000000
0.975000 -0.050000 0.000000
0.975000 -0.025000 0.000000
0.975000 0.000000 0.000000
1.000000 -0.075000 0.000000
1.000000 -0.050000 0.000000
1.000000 -0.025000 0.000000
1.000000 0.000000 0.000000
1.025000 -0.075000 0.000000
1.025000 -0.050000 0.000000
1.025000 -0.025000 0.000000
1.025000 0.000000 0.000000
1.025000 0.025000 0.000000
1.025000 0.050000 0.000000
1.025000 0.075000 0.000000
1.025000 0.100000 0.000000
1.025000 0.125000 0.000000
1.025000 0.150000 0.000000
1.025000 0.175000 0.000000
1.025000 0.200000 0.000000
1.025000 0.225000 0.000000
1.025000 0.250000 0.000000
1.025000 0.275000 0.000000
1.025000 0.300000 0.000000
1.025000 0.325000 0.000000
1.025000 0.350000 0.000000
1.025000 0.375000 0.000000
1.025000 0.400000 0.000000
1.025000 0.425000 0.000000
1.025000 0.450000 0.000000
1.025000 0.475000 0.000000
1.025000 0.500000 0.000000
1.025000 0.525000 0.000000
1.025000 0.550000 0.000000
1.025000 0.575000 0.000000
1.025000 0.600000 0.000000
1.050000 -0.075000 0.000000
1.050000 -0.050000 0.000000
1.050000 -0.025000 0.000000
1.050000 0.000000 0.000000
1.050000 0.025000 0.000000
1.050000 0.050000 0.000000
1.050000 0.075000 0.000000
1.050000 0.100000 0.000000
1.050000 0.125000 0.000000
1.050000 0.150000 0.000000
1.050000 0.175000 0.000000
1.050000 0.200000 0.000000
1.050000 0.225000 0.000000
1.050000 0.250000 0.000000
1.050000 0.275000 0.000000
1.050000 0.300000 0.000000
1.050000 0.325000 0.000000
1.050000 0.350000 0.000000
1.050000 0.375000 0.000000
1.050000 0.400000 0.000000
1.050000 0.425000 0.000000
1.050000 0.450000 0.000000
1.050000 0.475000 0.000000
1.050000 0.500000 0.000000
1.050000 0.525000 0.000000
1.050000 0.550000 0.000000
1.050000 0.575000 0.000000
1.050000 0.600000 0.000000
1.075000 -0.075000 0.000000
1.075000 -0.050000 0.000000
1.075000 -0.025000 0.000000
1.075000 0.000000 0.000000
1.075000 0.025000 0.000000
1.075000 0.050000 0.000000
1.075000 0.075000 0.000000
1.075000 0.100000 0.000000
1.075000 0.125000 0.000000
1.075000 0.150000 0.000000
1.075000 0.175000 0.000000
1.075000 0.200000 0.000000
1.075000 0.225000 0.000000
1.075000 0.250000 0.000000
1.075000 0.275000 0.000000
1.075000 0.300000 0.000000
1.075000 0.325000 0.000000
1.075000 0.350000 0.000000
1.075000 0.375000 0.000000
1.075000 0.400000 0.000000
1.075000 0.425000 0.000000
1.075000 0.450000 0.000000
1.075000 0.475000 0.000000
1.075000 0.500000 0.000000
1.075000 0.525000 0.000000
1.075000 0.550000 0.000000
1.075000 0.575000 0.000000
1.075000 0.600000 0.000000
1.100000 -0.075000 0.000000
1.100000 -0.050000 0.000000
1.100000 -0.025000 0.000000
1.100000 0.000000 0.000000
1.100000 0.025000 0.000000
1.100000 0.050000 0.000000
1.100000 0.075000 0.000000
1.100000 0.100000 0.000000
1.100000 0.125000 0.000000
1.100000 0.150000 0.000000
1.100000 0.175000 0.000000
1.100000 0.200000 0.000000
1.100000 0.225000 0.000000
1.100000 0.250000 0.000000
1.100000 0.275000 0.000000
1.100000 0.300000 0.000000
1.100000 0.325000 0.000000
1.100000 0.350000 0.000000
1.100000 0.375000 0.000000
1.100000 0.400000 0.000000
1.100000 0.425000 0.000000
1.100000 0.450000 0.000000
1.100000 0.475000 0.000000
1.100000 0.500000 0.000000
1.100000 0.525000 0.000000
1.100000 0.550000 0.000000
1.100000 0.575000 0.000000
1.100000 0.600000 0.000000
</DataArray>
</Points>
<PointData>
<DataArray NumberOfComponents='1' type='Int32' Name='ParticleType' format='ascii'>
3
3
3
3
3
3
3
3
3
3
3
3
3
3
3
3
3
3
3
3
3
3
3
3
3
3
2
2
3
3
3
3
3
3
3
3
3
3
3
3
3
3
3
3
3
3
3
3
3
3
3
3
3
3
2
2
3
3
2
2
2
2
2
2
2
2
2
2
2
2
2
2
2
2
2
2
2
2
2
2
2
2
2
2
3
3
2
2
2
2
2
2
2
2
2
2
2
2
2
2
2
2
2
2
2
2
2
2
2
2
2
2
3
3
2
2
0
0
0
0
0
0
0
0
0
0
0
0
0
0
0
0
0
0
0
0
3
3
2
2
0
0
0
0
0
0
0
0
0
0
0
0
0
0
0
0
0
0
0
0
3
3
2
2
0
0
0
0
0
0
0
0
0
0
0
0
0
0
0
0
0
0
0
0
3
3
2
2
0
0
0
0
0
0
0
0
0
0
0
0
0
0
0
0
0
0
0
0
3
3
2
2
0
0
0
0
0
0
0
0
0
0
0
0
0
0
0
0
0
0
0
0
3
3
2
2
0
0
0
0
0
0
0
0
0
0
0
0
0
0
0
0
0
0
0
0
3
3
2
2
0
0
0
0
0
0
0
0
0
0
0
0
0
0
0
0
0
0
0
0
3
3
2
2
0
0
0
0
0
0
0
0
0
0
0
0
0
0
0
0
0
0
0
0
3
3
2
2
0
0
0
0
0
0
0
0
0
0
0
0
0
0
0
0
0
0
0
0
3
3
2
2
0
0
0
0
0
0
0
0
0
0
0
0
0
0
0
0
0
0
0
0
3
3
2
2
3
3
2
2
3
3
2
2
3
3
2
2
3
3
2
2
3
3
2
2
3
3
2
2
3
3
2
2
3
3
2
2
3
3
2
2
3
3
2
2
3
3
2
2
3
3
2
2
3
3
2
2
3
3
2
2
3
3
2
2
3
3
2
2
3
3
2
2
3
3
2
2
3
3
2
2
3
3
2
2
3
3
2
2
3
3
2
2
3
3
2
2
3
3
2
2
3
3
2
2
3
3
2
2
3
3
2
2
3
3
2
2
3
3
2
2
3
3
2
2
2
2
2
2
2
2
2
2
2
2
2
2
2
2
2
2
2
2
2
2
2
2
2
2
3
3
2
2
2
2
2
2
2
2
2
2
2
2
2
2
2
2
2
2
2
2
2
2
2
2
2
2
3
3
3
3
3
3
3
3
3
3
3
3
3
3
3
3
3
3
3
3
3
3
3
3
3
3
2
2
3
3
3
3
3
3
3
3
3
3
3
3
3
3
3
3
3
3
3
3
3
3
3
3
3
3
2
2
</DataArray>
<DataArray NumberOfComponents='1' type='Float32' Name='Velocity' format='ascii'>
0.000000
0.000000
0.000000
0.000000
0.000000
0.000000
0.000000
0.000000
0.000000
0.000000
0.000000
0.000000
0.000000
0.000000
0.000000
0.000000
0.000000
0.000000
0.000000
0.000000
0.000000
0.000000
0.000000
0.000000
0.000000
0.000000
0.000000
0.000000
0.000000
0.000000
0.000000
0.000000
0.000000
0.000000
0.000000
0.000000
0.000000
0.000000
0.000000
0.000000
0.000000
0.000000
0.000000
0.000000
0.000000
0.000000
0.000000
0.000000
0.000000
0.000000
0.000000
0.000000
0.000000
0.000000
0.000000
0.000000
0.000000
0.000000
0.000000
0.000000
0.000000
0.000000
0.000000
0.000000
0.000000
0.000000
0.000000
0.000000
0.000000
0.000000
0.000000
0.000000
0.000000
0.000000
0.000000
0.000000
0.000000
0.000000
0.000000
0.000000
0.000000
0.000000
0.000000
0.000000
0.000000
0.000000
0.000000
0.000000
0.000000
0.000000
0.000000
0.000000
0.000000
0.000000
0.000000
0.000000
0.000000
0.000000
0.000000
0.000000
0.000000
0.000000
0.000000
0.000000
0.000000
0.000000
0.000000
0.000000
0.000000
0.000000
0.000000
0.000000
0.000000
0.000000
0.000000
0.000000
0.228098
0.204357
0.238810
0.291619
0.217530
0.114630
0.469367
0.311056
0.319309
0.051910
0.456952
0.090021
0.208683
0.074039
0.027549
0.175887
0.026759
0.164631
0.163535
0.495441
0.000000
0.000000
0.000000
0.000000
0.474686
0.870855
1.059057
0.999802
1.024802
0.894451
0.481626
0.446847
0.334671
0.310492
0.722136
0.839960
0.056549
0.347365
0.311244
0.129987
0.226087
0.447872
0.331874
0.193452
0.000000
0.000000
0.000000
0.000000
0.319336
0.628694
0.713755
0.320961
0.849828
0.501465
0.358422
0.641418
0.544983
0.354464
0.871672
0.592473
0.519541
0.287230
0.737564
0.546581
0.246149
0.845329
0.612872
0.230853
0.000000
0.000000
0.000000
0.000000
1.165794
0.586932
0.297001
0.150056
0.493999
0.174412
0.350046
0.387783
0.250793
0.250921
0.970684
1.036376
0.884476
0.270982
0.474749
0.848222
0.925728
0.811877
0.306336
0.857892
0.000000
0.000000
0.000000
0.000000
0.195953
0.156668
0.118177
0.168674
0.204522
0.632380
1.211215
0.690156
0.350287
0.363870
0.247184
0.915186
1.269391
0.584521
0.730578
0.209781
0.277098
0.306135
0.957179
1.346079
0.000000
0.000000
0.000000
0.000000
1.001690
0.446146
0.589120
1.698206
0.346190
1.924784
0.398426
1.293508
0.192842
0.339852
0.253878
0.324496
0.311451
0.180510
0.872353
0.348024
0.067992
0.185144
0.426871
0.507839
0.000000
0.000000
0.000000
0.000000
2.444965
0.356709
0.482300
0.169156
0.430850
1.448307
0.199917
0.912872
1.170250
0.178060
0.507256
0.493690
1.302698
0.382190
0.193297
1.268609
0.394307
0.231100
0.452301
0.431310
0.000000
0.000000
0.000000
0.000000
1.432952
1.556513
1.484559
0.510498
1.001116
1.306945
1.280660
1.270563
0.564204
1.901873
1.209159
0.261857
1.064596
1.109691
0.745059
1.055386
0.317221
0.884198
0.203435
0.315056
0.000000
0.000000
0.000000
0.000000
1.377606
0.363056
1.240771
2.401153
2.266811
2.249720
1.728385
1.327195
1.168287
1.183470
1.405532
1.745918
0.981354
1.312837
1.540936
0.859137
1.874182
1.305125
1.359685
1.668116
0.000000
0.000000
0.000000
0.000000
1.094602
1.125840
1.993110
1.811289
1.153417
1.721950
1.317770
1.544022
2.384246
0.873323
1.407323
2.056508
1.435562
0.896898
1.184495
0.887169
1.990327
0.177964
1.879779
0.392104
0.000000
0.000000
0.000000
0.000000
0.000000
0.000000
0.000000
0.000000
0.000000
0.000000
0.000000
0.000000
0.000000
0.000000
0.000000
0.000000
0.000000
0.000000
0.000000
0.000000
0.000000
0.000000
0.000000
0.000000
0.000000
0.000000
0.000000
0.000000
0.000000
0.000000
0.000000
0.000000
0.000000
0.000000
0.000000
0.000000
0.000000
0.000000
0.000000
0.000000
0.000000
0.000000
0.000000
0.000000
0.000000
0.000000
0.000000
0.000000
0.000000
0.000000
0.000000
0.000000
0.000000
0.000000
0.000000
0.000000
0.000000
0.000000
0.000000
0.000000
0.000000
0.000000
0.000000
0.000000
0.000000
0.000000
0.000000
0.000000
0.000000
0.000000
0.000000
0.000000
0.000000
0.000000
0.000000
0.000000
0.000000
0.000000
0.000000
0.000000
0.000000
0.000000
0.000000
0.000000
0.000000
0.000000
0.000000
0.000000
0.000000
0.000000
0.000000
0.000000
0.000000
0.000000
0.000000
0.000000
0.000000
0.000000
0.000000
0.000000
0.000000
0.000000
0.000000
0.000000
0.000000
0.000000
0.000000
0.000000
0.000000
0.000000
0.000000
0.000000
0.000000
0.000000
0.000000
0.000000
0.000000
0.000000
0.000000
0.000000
0.000000
0.000000
0.000000
0.000000
0.000000
0.000000
0.000000
0.000000
0.000000
0.000000
0.000000
0.000000
0.000000
0.000000
0.000000
0.000000
0.000000
0.000000
0.000000
0.000000
0.000000
0.000000
0.000000
0.000000
0.000000
0.000000
0.000000
0.000000
0.000000
0.000000
0.000000
0.000000
0.000000
0.000000
0.000000
0.000000
0.000000
0.000000
0.000000
0.000000
0.000000
0.000000
0.000000
0.000000
0.000000
0.000000
0.000000
0.000000
0.000000
0.000000
0.000000
0.000000
0.000000
0.000000
0.000000
0.000000
0.000000
0.000000
0.000000
0.000000
0.000000
0.000000
0.000000
0.000000
0.000000
0.000000
0.000000
0.000000
0.000000
0.000000
0.000000
0.000000
0.000000
0.000000
0.000000
0.000000
0.000000
0.000000
0.000000
0.000000
0.000000
0.000000
0.000000
0.000000
0.000000
0.000000
0.000000
0.000000
0.000000
0.000000
0.000000
0.000000
0.000000
0.000000
0.000000
0.000000
0.000000
0.000000
0.000000
0.000000
0.000000
0.000000
0.000000
0.000000
0.000000
0.000000
0.000000
0.000000
0.000000
0.000000
0.000000
0.000000
</DataArray>
<DataArray NumberOfComponents='1' type='Float32' Name='pressure' format='ascii'>
0.000000
0.000000
0.000000
0.000000
0.000000
0.000000
0.000000
0.000000
0.000000
0.000000
0.000000
0.000000
0.000000
0.000000
0.000000
0.000000
0.000000
0.000000
0.000000
0.000000
0.000000
0.000000
0.000000
0.000000
0.000000
0.000000
0.000000
0.000000
0.000000
0.000000
0.000000
0.000000
0.000000
0.000000
0.000000
0.000000
0.000000
0.000000
0.000000
0.000000
0.000000
0.000000
0.000000
0.000000
0.000000
0.000000
0.000000
0.000000
0.000000
0.000000
0.000000
0.000000
0.000000
0.000000
0.000000
0.000000
0.000000
0.000000
0.000000
0.000000
0.000000
496.037994
0.000000
0.000000
0.000000
0.000000
0.000000
0.000000
0.000000
0.000000
0.000000
0.000000
0.000000
0.000000
0.000000
0.000000
0.000000
0.000000
0.000000
0.000000
0.000000
0.000000
0.000000
0.000000
0.000000
0.000000
0.000000
0.000000
0.000000
0.000000
0.000000
0.000000
0.000000
0.000000
0.000000
0.000000
0.000000
0.000000
0.000000
0.000000
0.000000
0.000000
0.000000
0.000000
0.000000
0.000000
0.000000
0.000000
0.000000
0.000000
0.000000
0.000000
0.000000
0.000000
1837.368896
0.000000
0.000000
544.057617
45.935020
736.853943
358.138336
624.343750
965.892517
1154.006226
231.902176
0.000000
0.000000
0.000000
472.039886
0.000000
0.000000
0.000000
255.222473
508.278778
0.000000
441.682465
0.000000
0.000000
2444.297607
220.315079
165.643005
0.000000
300.871979
0.000000
0.000000
0.000000
3769.615234
0.000000
1481.840454
0.000000
0.000000
0.000000
424.559174
0.000000
0.000000
0.000000
0.000000
0.000000
0.000000
0.000000
0.000000
0.000000
678.838379
987.808899
308.867523
260.480713
1436.027954
379.163452
749.326416
1393.225708
615.796509
0.000000
1595.016479
1081.632935
2231.629150
0.000000
0.000000
0.000000
0.000000
0.000000
93.234581
0.000000
0.000000
0.000000
0.000000
0.000000
1195.371948
938.981201
0.000000
0.000000
973.736816
0.000000
0.000000
1004.208130
1351.947144
0.000000
849.030334
1381.271484
0.000000
2360.947510
831.736023
1109.836060
0.000000
990.451172
1586.945068
0.000000
0.000000
0.000000
0.000000
0.000000
51.764858
0.000000
675.166504
1001.880005
0.000000
1001.636780
468.672607
163.031540
1502.924683
2943.952637
0.000000
193.927856
1738.438477
0.000000
0.000000
0.000000
0.000000
1333.821411
0.000000
0.000000
0.000000
0.000000
0.000000
0.000000
1964.609253
631.572754
0.000000
0.000000
2196.753418
0.000000
0.000000
0.000000
0.000000
0.000000
0.000000
3027.133789
612.000061
1486.328003
1651.664795
1275.062378
452.168945
1135.423584
27.545504
1580.496704
1938.233643
1883.438232
0.000000
0.000000
1735.364258
1892.170166
0.000000
1305.735840
1682.762939
0.000000
984.468689
0.000000
1402.596924
1685.614136
1361.692383
1682.436035
3444.414307
570.076355
0.000000
795.628479
1634.228516
0.000000
426.585358
1959.489258
2095.309082
165.260040
0.000000
0.000000
117.863213
0.000000
0.000000
0.000000
0.000000
0.000000
0.000000
0.000000
0.000000
0.000000
2236.965088
0.000000
0.000000
382.688599
0.000000
0.000000
0.000000
2072.688721
3142.556885
2826.532227
456.931000
25.413219
0.000000
0.000000
0.000000
0.000000
0.000000
0.000000
2729.928223
0.000000
0.000000
0.000000
0.000000
0.000000
0.000000
0.000000
0.000000
0.000000
0.000000
0.000000
1373.251099
0.000000
0.000000
2015.768188
0.000000
0.000000
0.000000
0.000000
0.000000
0.000000
0.000000
0.000000
0.000000
0.000000
0.000000
0.000000
0.000000
0.000000
0.000000
0.000000
0.000000
0.000000
0.000000
1465.312744
0.000000
1401.840332
0.000000
4321.574219
0.000000
1197.499023
0.000000
0.000000
1121.957031
0.000000
0.000000
0.000000
1890.447021
2236.395752
0.000000
0.000000
0.000000
761.313965
0.000000
0.000000
45.875397
0.000000
0.000000
0.000000
1906.261230
1031.867676
0.000000
0.000000
4390.318359
1294.447388
0.000000
0.000000
4881.965332
1133.208252
0.000000
0.000000
740.691284
0.000000
0.000000
0.000000
847.102844
0.000000
0.000000
0.000000
1596.437622
0.000000
0.000000
0.000000
3425.612549
4303.397949
0.000000
0.000000
1893.498657
801.851318
0.000000
0.000000
441.197357
0.000000
0.000000
0.000000
0.000000
0.000000
0.000000
0.000000
2021.432617
1136.768433
0.000000
0.000000
1507.684082
0.000000
0.000000
0.000000
1978.764038
0.000000
0.000000
0.000000
2201.554443
662.342773
0.000000
0.000000
3684.156982
1949.156494
0.000000
0.000000
3993.983887
1970.943481
0.000000
0.000000
3806.591309
2327.126709
0.000000
0.000000
403.537109
0.000000
0.000000
0.000000
148.480560
0.000000
0.000000
0.000000
182.566696
0.000000
0.000000
0.000000
2490.299805
2951.660889
0.000000
0.000000
730.812622
1250.978027
0.000000
0.000000
2162.280762
1575.156738
0.000000
0.000000
1355.765747
0.000000
0.000000
0.000000
2286.708496
517.148560
0.000000
0.000000
3094.046387
3485.015137
0.000000
0.000000
2088.567139
1954.453857
537.565063
792.534241
0.000000
694.719482
387.754150
0.000000
1819.347534
3840.752686
547.579773
278.704590
1342.239380
118.895065
0.000000
0.000000
0.000000
0.000000
0.000000
0.000000
0.000000
0.000000
0.000000
0.000000
0.000000
0.000000
0.000000
0.000000
1848.967773
1529.555542
551.457520
974.919678
501.273193
1223.512329
1649.378296
1669.973145
3132.544189
3975.406494
2317.003418
905.531067
1567.811401
1723.273438
0.000000
0.000000
0.000000
0.000000
0.000000
0.000000
0.000000
0.000000
0.000000
0.000000
0.000000
0.000000
0.000000
0.000000
0.000000
0.000000
0.000000
0.000000
0.000000
0.000000
0.000000
0.000000
0.000000
0.000000
0.000000
0.000000
0.000000
0.000000
0.000000
0.000000
0.000000
0.000000
0.000000
0.000000
0.000000
0.000000
0.000000
0.000000
0.000000
0.000000
0.000000
0.000000
0.000000
0.000000
0.000000
0.000000
0.000000
0.000000
0.000000
0.000000
0.000000
0.000000
0.000000
0.000000
0.000000
0.000000
0.000000
0.000000
0.000000
0.000000
0.000000
0.000000
0.000000
0.000000
0.000000
0.000000
0.000000
0.000000
</DataArray>
</PointData>
<Cells>
<DataArray type='Int32' Name='connectivity' format='ascii'>
0
1
2
3
4
5
6
7
8
9
10
11
12
13
14
15
16
17
18
19
20
21
22
23
24
25
26
27
28
29
30
31
32
33
34
35
36
37
38
39
40
41
42
43
44
45
46
47
48
49
50
51
52
53
54
55
56
57
58
59
60
61
62
63
64
65
66
67
68
69
70
71
72
73
74
75
76
77
78
79
80
81
82
83
84
85
86
87
88
89
90
91
92
93
94
95
96
97
98
99
100
101
102
103
104
105
106
107
108
109
110
111
112
113
114
115
116
117
118
119
120
121
122
123
124
125
126
127
128
129
130
131
132
133
134
135
136
137
138
139
140
141
142
143
144
145
146
147
148
149
150
151
152
153
154
155
156
157
158
159
160
161
162
163
164
165
166
167
168
169
170
171
172
173
174
175
176
177
178
179
180
181
182
183
184
185
186
187
188
189
190
191
192
193
194
195
196
197
198
199
200
201
202
203
204
205
206
207
208
209
210
211
212
213
214
215
216
217
218
219
220
221
222
223
224
225
226
227
228
229
230
231
232
233
234
235
236
237
238
239
240
241
242
243
244
245
246
247
248
249
250
251
252
253
254
255
256
257
258
259
260
261
262
263
264
265
266
267
268
269
270
271
272
273
274
275
276
277
278
279
280
281
282
283
284
285
286
287
288
289
290
291
292
293
294
295
296
297
298
299
300
301
302
303
304
305
306
307
308
309
310
311
312
313
314
315
316
317
318
319
320
321
322
323
324
325