<?xml version='1.0' encoding='UTF-8'?>
<VTKFile xmlns='VTK' byte_order='LittleEndian' version='0.1' type='UnstructuredGrid'>
<UnstructuredGrid>
<Piece NumberOfCells='584' NumberOfPoints='584'>
<Points>
<DataArray NumberOfComponents='3' type='Float32' Name='Position' format='ascii'>
-0.075000 -0.075000 0.000000
-0.075000 -0.050000 0.000000
-0.075000 -0.025000 0.000000
-0.075000 0.000000 0.000000
-0.075000 0.025000 0.000000
-0.075000 0.050000 0.000000
-0.075000 0.075000 0.000000
-0.075000 0.100000 0.000000
-0.075000 0.125000 0.000000
-0.075000 0.150000 0.000000
-0.075000 0.175000 0.000000
-0.075000 0.200000 0.000000
-0.075000 0.225000 0.000000
-0.075000 0.250000 0.000000
-0.075000 0.275000 0.000000
-0.075000 0.300000 0.000000
-0.075000 0.325000 0.000000
-0.075000 0.350000 0.000000
-0.075000 0.375000 0.000000
-0.075000 0.400000 0.000000
-0.075000 0.425000 0.000000
-0.075000 0.450000 0.000000
-0.075000 0.475000 0.000000
-0.075000 0.500000 0.000000
-0.075000 0.525000 0.000000
-0.075000 0.550000 0.000000
-0.075000 0.575000 0.000000
-0.075000 0.600000 0.000000
-0.050000 -0.075000 0.000000
-0.050000 -0.050000 0.000000
-0.050000 -0.025000 0.000000
-0.050000 0.000000 0.000000
-0.050000 0.025000 0.000000
-0.050000 0.050000 0.000000
-0.050000 0.075000 0.000000
-0.050000 0.100000 0.000000
-0.050000 0.125000 0.000000
-0.050000 0.150000 0.000000
-0.050000 0.175000 0.000000
-0.050000 0.200000 0.000000
-0.050000 0.225000 0.000000
-0.050000 0.250000 0.000000
-0.050000 0.275000 0.000000
-0.050000 0.300000 0.000000
-0.050000 0.325000 0.000000
-0.050000 0.350000 0.000000
-0.050000 0.375000 0.000000
-0.050000 0.400000 0.000000
-0.050000 0.425000 0.000000
-0.050000 0.450000 0.000000
-0.050000 0.475000 0.000000
-0.050000 0.500000 0.000000
-0.050000 0.525000 0.000000
-0.050000 0.550000 0.000000
-0.050000 0.575000 0.000000
-0.050000 0.600000 0.000000
-0.025000 -0.075000 0.000000
-0.025000 -0.050000 0.000000
-0.025000 -0.025000 0.000000
-0.025000 0.000000 0.000000
-0.025000 0.025000 0.000000
-0.025000 0.050000 0.000000
-0.025000 0.075000 0.000000
-0.025000 0.100000 0.000000
-0.025000 0.125000 0.000000
-0.025000 0.150000 0.000000
-0.025000 0.175000 0.000000
-0.025000 0.200000 0.000000
-0.025000 0.225000 0.000000
-0.025000 0.250000 0.000000
-0.025000 0.275000 0.000000
-0.025000 0.300000 0.000000
-0.025000 0.325000 0.000000
-0.025000 0.350000 0.000000
-0.025000 0.375000 0.000000
-0.025000 0.400000 0.000000
-0.025000 0.425000 0.000000
-0.025000 0.450000 0.000000
-0.025000 0.475000 0.000000
-0.025000 0.500000 0.000000
-0.025000 0.525000 0.000000
-0.025000 0.550000 0.000000
-0.025000 0.575000 0.000000
-0.025000 0.600000 0.000000
0.000000 -0.075000 0.000000
0.000000 -0.050000 0.000000
0.000000 -0.025000 0.000000
0.000000 0.000000 0.000000
0.000000 0.025000 0.000000
0.000000 0.050000 0.000000
0.000000 0.075000 0.000000
0.000000 0.100000 0.000000
0.000000 0.125000 0.000000
0.000000 0.150000 0.000000
0.000000 0.175000 0.000000
0.000000 0.200000 0.000000
0.000000 0.225000 0.000000
0.000000 0.250000 0.000000
0.000000 0.275000 0.000000
0.000000 0.300000 0.000000
0.000000 0.325000 0.000000
0.000000 0.350000 0.000000
0.000000 0.375000 0.000000
0.000000 0.400000 0.000000
0.000000 0.425000 0.000000
0.000000 0.450000 0.000000
0.000000 0.475000 0.000000
0.000000 0.500000 0.000000
0.000000 0.525000 0.000000
0.000000 0.550000 0.000000
0.000000 0.575000 0.000000
0.000000 0.600000 0.000000
0.025000 -0.075000 0.000000
0.025000 -0.050000 0.000000
0.025000 -0.025000 0.000000
0.025000 0.000000 0.000000
0.290425 0.077034 0.000000
0.157897 0.123701 0.000000
0.272240 0.052272 0.000000
0.251489 0.024236 0.000000
0.295633 0.052611 0.000000
0.199200 0.054713 0.000000
0.374191 0.026926 0.000000
0.300662 0.097118 0.000000
0.232094 0.114138 0.000000
0.161642 0.155553 0.000000
0.277014 0.025706 0.000000
0.180745 0.066591 0.000000
0.227817 0.026021 0.000000
0.201237 0.024521 0.000000
0.157191 0.086920 0.000000
0.105271 0.040246 0.000000
0.024336 0.140046 0.000000
0.126318 0.022699 0.000000
0.056983 0.084811 0.000000
0.256265 0.073326 0.000000
0.050000 -0.075000 0.000000
0.050000 -0.050000 0.000000
0.050000 -0.025000 0.000000
0.050000 0.000000 0.000000
0.111348 0.173410 0.000000
0.150252 0.064301 0.000000
0.089058 0.110006 0.000000
0.051443 0.021964 0.000000
0.025794 0.075733 0.000000
0.463009 0.069804 0.000000
0.256133 0.129632 0.000000
0.614393 0.020243 0.000000
0.109972 0.100230 0.000000
0.279807 0.174717 0.000000
0.180668 0.025411 0.000000
0.272290 0.146286 0.000000
0.034897 0.157364 0.000000
0.328308 0.189570 0.000000
0.222340 0.050634 0.000000
0.053267 0.044460 0.000000
0.266868 0.096096 0.000000
0.329843 0.089230 0.000000
0.091006 0.136647 0.000000
0.128993 0.044559 0.000000
0.075000 -0.075000 0.000000
0.075000 -0.050000 0.000000
0.075000 -0.025000 0.000000
0.075000 0.000000 0.000000
0.203374 0.078267 0.000000
0.180156 0.125872 0.000000
0.442013 0.132136 0.000000
0.394796 0.022933 0.000000
0.450616 0.146332 0.000000
0.550587 0.124048 0.000000
0.552893 0.105970 0.000000
0.086806 0.065027 0.000000
0.358306 0.078680 0.000000
0.592280 0.045720 0.000000
0.477776 0.027913 0.000000
0.118379 0.065724 0.000000
0.273331 0.115911 0.000000
0.264094 0.168605 0.000000
0.338915 0.060793 0.000000
0.080347 0.042516 0.000000
0.177410 0.097262 0.000000
0.051476 0.065336 0.000000
0.198129 0.101686 0.000000
0.249230 0.048661 0.000000
0.100000 -0.075000 0.000000
0.100000 -0.050000 0.000000
0.100000 -0.025000 0.000000
0.100000 0.000000 0.000000
0.520916 0.034023 0.000000
0.380243 0.205906 0.000000
0.492627 0.134681 0.000000
0.783101 0.021315 0.000000
0.315049 0.069589 0.000000
0.721196 0.028612 0.000000
0.556624 0.064095 0.000000
0.316171 0.039028 0.000000
0.672131 0.030091 0.000000
0.687428 0.058074 0.000000
0.498058 0.022105 0.000000
0.347172 0.101064 0.000000
0.506511 0.119605 0.000000
0.648691 0.069729 0.000000
0.068042 0.122663 0.000000
0.302516 0.023335 0.000000
0.524562 0.068028 0.000000
0.348682 0.042032 0.000000
0.376603 0.097002 0.000000
0.140366 0.143815 0.000000
0.125000 -0.075000 0.000000
0.125000 -0.050000 0.000000
0.125000 -0.025000 0.000000
0.125000 0.000000 0.000000
0.702898 0.063876 0.000000
0.599012 0.075481 0.000000
0.984880 0.073821 0.000000
0.849054 0.027598 0.000000
0.527427 0.103538 0.000000
0.636352 0.040628 0.000000
0.059734 0.147972 0.000000
0.486793 0.074245 0.000000
0.785559 0.068314 0.000000
0.739652 0.054723 0.000000
0.844907 0.069014 0.000000
0.507577 0.057045 0.000000
0.537819 0.047646 0.000000
0.390956 0.138307 0.000000
0.447421 0.024506 0.000000
0.408640 0.158525 0.000000
0.214915 0.154396 0.000000
0.227104 0.075205 0.000000
0.417108 0.146750 0.000000
0.061583 0.103220 0.000000
0.150000 -0.075000 0.000000
0.150000 -0.050000 0.000000
0.150000 -0.025000 0.000000
0.150000 0.000000 0.000000
0.176296 0.173048 0.000000
0.964795 0.028463 0.000000
0.667332 0.066561 0.000000
0.370661 0.051271 0.000000
0.896621 0.024439 0.000000
0.243863 0.093080 0.000000
0.906613 0.060613 0.000000
0.437172 0.185676 0.000000
0.960982 0.051985 0.000000
0.499638 0.178058 0.000000
0.941203 0.022409 0.000000
0.690745 0.021094 0.000000
0.876816 0.070437 0.000000
0.813590 0.057684 0.000000
0.766120 0.036498 0.000000
0.582972 0.079570 0.000000
0.652345 0.028771 0.000000
0.583194 0.110332 0.000000
0.617982 0.083620 0.000000
0.336239 0.121430 0.000000
0.175000 -0.075000 0.000000
0.175000 -0.050000 0.000000
0.175000 -0.025000 0.000000
0.175000 0.000000 0.000000
0.130794 0.088526 0.000000
0.512548 0.151868 0.000000
0.890632 0.045179 0.000000
0.776291 0.053207 0.000000
0.990327 0.022341 0.000000
0.139420 0.109049 0.000000
0.869492 0.024447 0.000000
0.419405 0.047148 0.000000
0.448762 0.047557 0.000000
0.921995 0.031288 0.000000
0.510247 0.091860 0.000000
0.743782 0.084521 0.000000
0.420832 0.092389 0.000000
0.930200 0.056224 0.000000
0.981840 0.052564 0.000000
0.478172 0.048810 0.000000
1.005275 0.040068 0.000000
0.489125 0.096603 0.000000
0.113214 0.130580 0.000000
0.394507 0.109162 0.000000
0.200000 -0.075000 0.000000
0.200000 -0.050000 0.000000
0.200000 -0.025000 0.000000
0.200000 0.000000 0.000000
0.371657 0.127801 0.000000
0.154946 0.025137 0.000000
0.309666 0.114458 0.000000
0.820298 0.021925 0.000000
0.443732 0.103419 0.000000
0.366258 0.173468 0.000000
0.614781 0.041908 0.000000
0.965858 0.076806 0.000000
0.377018 0.157902 0.000000
0.096400 0.082281 0.000000
0.805337 0.036999 0.000000
0.631728 0.076680 0.000000
0.086590 0.021777 0.000000
0.448410 0.191684 0.000000
0.542947 0.021385 0.000000
0.221381 0.140943 0.000000
0.715627 0.051388 0.000000
0.401158 0.201150 0.000000
0.860134 0.055391 0.000000
0.671909 0.089430 0.000000
0.225000 -0.075000 0.000000
0.225000 -0.050000 0.000000
0.225000 -0.025000 0.000000
0.225000 0.000000 0.000000
0.410253 0.075629 0.000000
0.836277 0.051368 0.000000
0.520622 0.164420 0.000000
0.318472 0.168541 0.000000
0.048885 0.160978 0.000000
0.085324 0.158002 0.000000
0.469392 0.160451 0.000000
0.921788 0.071269 0.000000
0.570389 0.041745 0.000000
0.025228 0.099217 0.000000
0.559048 0.082972 0.000000
0.210685 0.177332 0.000000
0.425284 0.025638 0.000000
0.462430 0.104162 0.000000
0.161730 0.046473 0.000000
0.214001 0.119916 0.000000
0.538321 0.129956 0.000000
0.024548 0.027187 0.000000
0.298407 0.137600 0.000000
0.398535 0.051828 0.000000
0.250000 -0.075000 0.000000
0.250000 -0.050000 0.000000
0.250000 -0.025000 0.000000
0.250000 0.000000 0.000000
0.740131 0.022589 0.000000
0.402415 0.186484 0.000000
0.313689 0.184463 0.000000
0.384200 0.072874 0.000000
0.340540 0.019897 0.000000
0.343450 0.157998 0.000000
0.121670 0.149372 0.000000
0.368953 0.198348 0.000000
0.313973 0.143688 0.000000
0.469894 0.126718 0.000000
0.253106 0.158337 0.000000
0.032314 0.118160 0.000000
0.176856 0.147096 0.000000
0.576381 0.023168 0.000000
0.414544 0.114139 0.000000
0.442826 0.071729 0.000000
0.350740 0.137442 0.000000
0.749434 0.070376 0.000000
0.024772 0.048927 0.000000
0.485227 0.166101 0.000000
0.275000 -0.075000 0.000000
0.275000 -0.050000 0.000000
0.275000 -0.025000 0.000000
0.275000 0.000000 0.000000
0.300000 -0.075000 0.000000
0.300000 -0.050000 0.000000
0.300000 -0.025000 0.000000
0.300000 0.000000 0.000000
0.325000 -0.075000 0.000000
0.325000 -0.050000 0.000000
0.325000 -0.025000 0.000000
0.325000 0.000000 0.000000
0.350000 -0.075000 0.000000
0.350000 -0.050000 0.000000
0.350000 -0.025000 0.000000
0.350000 0.000000 0.000000
0.375000 -0.075000 0.000000
0.375000 -0.050000 0.000000
0.375000 -0.025000 0.000000
0.375000 0.000000 0.000000
0.400000 -0.075000 0.000000
0.400000 -0.050000 0.000000
0.400000 -0.025000 0.000000
0.400000 0.000000 0.000000
0.425000 -0.075000 0.000000
0.425000 -0.050000 0.000000
0.425000 -0.025000 0.000000
0.425000 0.000000 0.000000
0.450000 -0.075000 0.000000
0.450000 -0.050000 0.000000
0.450000 -0.025000 0.000000
0.450000 0.000000 0.000000
0.475000 -0.075000 0.000000
0.475000 -0.050000 0.000000
0.475000 -0.025000 0.000000
0.475000 0.000000 0.000000
0.500000 -0.075000 0.000000
0.500000 -0.050000 0.000000
0.500000 -0.025000 0.000000
0.500000 0.000000 0.000000
0.525000 -0.075000 0.000000
0.525000 -0.050000 0.000000
0.525000 -0.025000 0.000000
0.525000 0.000000 0.000000
0.550000 -0.075000 0.000000
0.550000 -0.050000 0.000000
0.550000 -0.025000 0.000000
0.550000 0.000000 0.000000
0.575000 -0.075000 0.000000
0.575000 -0.050000 0.000000
0.575000 -0.025000 0.000000
0.575000 0.000000 0.000000
0.600000 -0.075000 0.000000
0.600000 -0.050000 0.000000
0.600000 -0.025000 0.000000
0.600000 0.000000 0.000000
0.625000 -0.075000 0.000000
0.625000 -0.050000 0.000000
0.625000 -0.025000 0.000000
0.625000 0.000000 0.000000
0.650000 -0.075000 0.000000
0.650000 -0.050000 0.000000
0.650000 -0.025000 0.000000
0.650000 0.000000 0.000000
0.675000 -0.075000 0.000000
0.675000 -0.050000 0.000000
0.675000 -0.025000 0.000000
0.675000 0.000000 0.000000
0.700000 -0.075000 0.000000
0.700000 -0.050000 0.000000
0.700000 -0.025000 0.000000
0.700000 0.000000 0.000000
0.725000 -0.075000 0.000000
0.725000 -0.050000 0.000000
0.725000 -0.025000 0.000000
0.725000 0.000000 0.000000
0.750000 -0.075000 0.000000
0.750000 -0.050000 0.000000
0.750000 -0.025000 0.000000
0.750000 0.000000 0.000000
0.775000 -0.075000 0.000000
0.775000 -0.050000 0.000000
0.775000 -0.025000 0.000000
0.775000 0.000000 0.000000
0.800000 -0.075000 0.000000
0.800000 -0.050000 0.000000
0.800000 -0.025000 0.000000
0.800000 0.000000 0.000000
0.825000 -0.075000 0.000000
0.825000 -0.050000 0.000000
0.825000 -0.025000 0.000000
0.825000 0.000000 0.000000
0.850000 -0.075000 0.000000
0.850000 -0.050000 0.000000
0.850000 -0.025000 0.000000
0.850000 0.000000 0.000000
0.875000 -0.075000 0.000000
0.875000 -0.050000 0.000000
0.875000 -0.025000 0.000000
0.875000 0.000000 0.000000
0.900000 -0.075000 0.000000
0.900000 -0.050000 0.000000
0.900000 -0.025000 0.000000
0.900000 0.000000 0.000000
0.925000 -0.075000 0.000000
0.925000 -0.050000 0.000000
0.925000 -0.025000 0.000000
0.925000 0.000000 0.000000
0.950000 -0.075000 0.000000
0.950000 -0.050000 0.000000
0.950000 -0.025000 0.000000
0.950000 0.000000 0.000000
0.975000 -0.075000 0.000000
0.975000 -0.050000 0.000000
0.975000 -0.025000 0.000000
0.975000 0.000000 0.000000
1.000000 -0.075000 0.000000
1.000000 -0.050000 0.000000
1.000000 -0.025000 0.000000
1.000000 0.000000 0.000000
1.025000 -0.075000 0.000000
1.025000 -0.050000 0.000000
1.025000 -0.025000 0.000000
1.025000 0.000000 0.000000
1.025000 0.025000 0.000000
1.025000 0.050000 0.000000
1.025000 0.075000 0.000000
1.025000 0.100000 0.000000
1.025000 0.125000 0.000000
1.025000 0.150000 0.000000
1.025000 0.175000 0.000000
1.025000 0.200000 0.000000
1.025000 0.225000 0.000000
1.025000 0.250000 0.000000
1.025000 0.275000 0.000000
1.025000 0.300000 0.000000
1.025000 0.325000 0.000000
1.025000 0.350000 0.000000
1.025000 0.375000 0.000000
1.025000 0.400000 0.000000
1.025000 0.425000 0.000000
1.025000 0.450000 0.000000
1.025000 0.475000 0.000000
1.025000 0.500000 0.000000
1.025000 0.525000 0.000000
1.025000 0.550000 0.000000
1.025000 0.575000 0.000000
1.025000 0.600000 0.000000
1.050000 -0.075000 0.000000
1.050000 -0.050000 0.000000
1.050000 -0.025000 0.000000
1.050000 0.000000 0.000000
1.050000 0.025000 0.000000
1.050000 0.050000 0.000000
1.050000 0.075000 0.000000
1.050000 0.100000 0.000000
1.050000 0.125000 0.000000
1.050000 0.150000 0.000000
1.050000 0.175000 0.000000
1.050000 0.200000 0.000000
1.050000 0.225000 0.000000
1.050000 0.250000 0.000000
1.050000 0.275000 0.000000
1.050000 0.300000 0.000000
1.050000 0.325000 0.000000
1.050000 0.350000 0.000000
1.050000 0.375000 0.000000
1.050000 0.400000 0.000000
1.050000 0.425000 0.000000
1.050000 0.450000 0.000000
1.050000 0.475000 0.000000
1.050000 0.500000 0.000000
1.050000 0.525000 0.000000
1.050000 0.550000 0.000000
1.050000 0.575000 0.000000
1.050000 0.600000 0.000000
1.075000 -0.075000 0.000000
1.075000 -0.050000 0.000000
1.075000 -0.025000 0.000000
1.075000 0.000000 0.000000
1.075000 0.025000 0.000000
1.075000 0.050000 0.000000
1.075000 0.075000 0.000000
1.075000 0.100000 0.000000
1.075000 0.125000 0.000000
1.075000 0.150000 0.000000
1.075000 0.175000 0.000000
1.075000 0.200000 0.000000
1.075000 0.225000 0.000000
1.075000 0.250000 0.000000
1.075000 0.275000 0.000000
1.075000 0.300000 0.000000
1.075000 0.325000 0.000000
1.075000 0.350000 0.000000
1.075000 0.375000 0.000000
1.075000 0.400000 0.000000
1.075000 0.425000 0.000000
1.075000 0.450000 0.000000
1.075000 0.475000 0.000000
1.075000 0.500000 0.000000
1.075000 0.525000 0.000000
1.075000 0.550000 0.000000
1.075000 0.575000 0.000000
1.075000 0.600000 0.000000
1.100000 -0.075000 0.000000
1.100000 -0.050000 0.000000
1.100000 -0.025000 0.000000
1.100000 0.000000 0.000000
1.100000 0.025000 0.000000
1.100000 0.050000 0.000000
1.100000 0.075000 0.000000
1.100000 0.100000 0.000000
1.100000 0.125000 0.000000
1.100000 0.150000 0.000000
1.100000 0.175000 0.000000
1.100000 0.200000 0.000000
1.100000 0.225000 0.000000
1.100000 0.250000 0.000000
1.100000 0.275000 0.000000
1.100000 0.300000 0.000000
1.100000 0.325000 0.000000
1.100000 0.350000 0.000000
1.100000 0.375000 0.000000
1.100000 0.400000 0.000000
1.100000 0.425000 0.000000
1.100000 0.450000 0.000000
1.100000 0.475000 0.000000
1.100000 0.500000 0.000000
1.100000 0.525000 0.000000
1.100000 0.550000 0.000000
1.100000 0.575000 0.000000
1.100000 0.600000 0.000000
</DataArray>
</Points>
<PointData>
<DataArray NumberOfComponents='1' type='Int32' Name='ParticleType' format='ascii'>
3
3
3
3
3
3
3
3
3
3
3
3
3
3
3
3
3
3
3
3
3
3
3
3
3
3
2
2
3
3
3
3
3
3
3
3
3
3
3
3
3
3
3
3
3
3
3
3
3
3
3
3
3
3
2
2
3
3
2
2
2
2
2
2
2
2
2
2
2
2
2
2
2
2
2
2
2
2
2
2
2
2
2
2
3
3
2
2
2
2
2
2
2
2
2
2
2
2
2
2
2
2
2
2
2
2
2
2
2
2
2
2
3
3
2
2
0
0
0
0
0
0
0
0
0
0
0
0
0
0
0
0
0
0
0
0
3
3
2
2
0
0
0
0
0
0
0
0
0
0
0
0
0
0
0
0
0
0
0
0
3
3
2
2
0
0
0
0
0
0
0
0
0
0
0
0
0
0
0
0
0
0
0
0
3
3
2
2
0
0
0
0
0
0
0
0
0
0
0
0
0
0
0
0
0
0
0
0
3
3
2
2
0
0
0
0
0
0
0
0
0
0
0
0
0
0
0
0
0
0
0
0
3
3
2
2
0
0
0
0
0
0
0
0
0
0
0
0
0
0
0
0
0
0
0
0
3
3
2
2
0
0
0
0
0
0
0
0
0
0
0
0
0
0
0
0
0
0
0
0
3
3
2
2
0
0
0
0
0
0
0
0
0
0
0
0
0
0
0
0
0
0
0
0
3
3
2
2
0
0
0
0
0
0
0
0
0
0
0
0
0
0
0
0
0
0
0
0
3
3
2
2
0
0
0
0
0
0
0
0
0
0
0
0
0
0
0
0
0
0
0
0
3
3
2
2
3
3
2
2
3
3
2
2
3
3
2
2
3
3
2
2
3
3
2
2
3
3
2
2
3
3
2
2
3
3
2
2
3
3
2
2
3
3
2
2
3
3
2
2
3
3
2
2
3
3
2
2
3
3
2
2
3
3
2
2
3
3
2
2
3
3
2
2
3
3
2
2
3
3
2
2
3
3
2
2
3
3
2
2
3
3
2
2
3
3
2
2
3
3
2
2
3
3
2
2
3
3
2
2
3
3
2
2
3
3
2
2
3
3
2
2
3
3
2
2
2
2
2
2
2
2
2
2
2
2
2
2
2
2
2
2
2
2
2
2
2
2
2
2
3
3
2
2
2
2
2
2
2
2
2
2
2
2
2
2
2
2
2
2
2
2
2
2
2
2
2
2
3
3
3
3
3
3
3
3
3
3
3
3
3
3
3
3
3
3
3
3
3
3
3
3
3
3
2
2
3
3
3
3
3
3
3
3
3
3
3
3
3
3
3
3
3
3
3
3
3
3
3
3
3
3
2
2
</DataArray>
<DataArray NumberOfComponents='1' type='Float32' Name='Velocity' format='ascii'>
0.000000
0.000000
0.000000
0.000000
0.000000
0.000000
0.000000
0.000000
0.000000
0.000000
0.000000
0.000000
0.000000
0.000000
0.000000
0.000000
0.000000
0.000000
0.000000
0.000000
0.000000
0.000000
0.000000
0.000000
0.000000
0.000000
0.000000
0.000000
0.000000
0.000000
0.000000
0.000000
0.000000
0.000000
0.000000
0.000000
0.000000
0.000000
0.000000
0.000000
0.000000
0.000000
0.000000
0.000000
0.000000
0.000000
0.000000
0.000000
0.000000
0.000000
0.000000
0.000000
0.000000
0.000000
0.000000
0.000000
0.000000
0.000000
0.000000
0.000000
0.000000
0.000000
0.000000
0.000000
0.000000
0.000000
0.000000
0.000000
0.000000
0.000000
0.000000
0.000000
0.000000
0.000000
0.000000
0.000000
0.000000
0.000000
0.000000
0.000000
0.000000
0.000000
0.000000
0.000000
0.000000
0.000000
0.000000
0.000000
0.000000
0.000000
0.000000
0.000000
0.000000
0.000000
0.000000
0.000000
0.000000
0.000000
0.000000
0.000000
0.000000
0.000000
0.000000
0.000000
0.000000
0.000000
0.000000
0.000000
0.000000
0.000000
0.000000
0.000000
0.000000
0.000000
0.000000
0.000000
0.670632
0.279745
0.431843
0.498272
0.377461
0.498035
0.337258
0.546272
0.520378
0.654022
0.313691
0.541056
0.464630
0.505084
0.441118
0.277054
0.226291
0.418645
0.314332
0.454541
0.000000
0.000000
0.000000
0.000000
0.309826
0.375380
0.438614
0.282646
0.144405
0.801579
0.357952
0.224702
0.325129
0.946542
0.447944
0.153457
0.181037
1.109394
0.511601
0.035239
0.440251
0.747683
0.721782
0.310652
0.000000
0.000000
0.000000
0.000000
0.397040
0.156260
0.509079
0.355334
0.711606
0.426618
0.772587
0.124745
0.725283
0.491984
0.517646
0.263631
0.383836
0.204638
0.327982
0.261939
0.389918
0.094775
0.156251
0.425123
0.000000
0.000000
0.000000
0.000000
0.597617
0.243474
0.661716
0.211691
0.315876
0.317048
0.122741
0.609689
0.398123
0.504290
0.552463
0.541172
0.629923
0.547561
0.183260
0.317573
0.618660
0.550923
0.411419
0.937259
0.000000
0.000000
0.000000
0.000000
0.506172
0.255477
0.142912
0.286526
0.325268
0.541040
0.423081
0.680055
0.070125
0.447450
0.393435
0.564541
0.708370
0.484331
0.577584
0.451503
0.200229
0.472618
0.571451
0.278507
0.000000
0.000000
0.000000
0.000000
0.365961
0.295973
0.482455
0.438000
0.032527
0.466014
0.272713
0.203731
0.203658
0.823266
0.164258
0.099168
0.416434
0.246449
0.015958
0.404272
0.314171
0.222429
0.339539
0.413365
0.000000
0.000000
0.000000
0.000000
0.482793
0.352023
0.224512
0.319103
0.208259
0.527851
0.096541
0.680101
0.488261
0.295789
0.659994
0.062178
0.849287
0.196216
0.162243
0.797232
0.239708
0.528802
0.286341
0.668543
0.000000
0.000000
0.000000
0.000000
0.551591
0.443956
0.421915
0.112664
0.507447
0.361232
0.500147
0.302299
0.726100
0.037581
0.162566
0.373926
0.053333
0.165055
0.408322
0.461536
0.023810
0.577304
0.248491
0.266155
0.000000
0.000000
0.000000
0.000000
0.556248
0.150073
0.473938
0.444104
0.069498
0.700053
0.548750
0.426755
0.621453
0.380852
0.328376
0.634649
0.378680
0.458791
0.650769
0.237101
0.639050
0.043364
0.174797
0.621003
0.000000
0.000000
0.000000
0.000000
0.321759
0.426542
0.654117
0.787933
0.227592
0.874726
0.142061
0.531816
0.625207
0.345126
0.396836
0.623428
0.235575
0.454034
0.529002
0.736562
0.414338
0.068409
0.110364
0.423063
0.000000
0.000000
0.000000
0.000000
0.000000
0.000000
0.000000
0.000000
0.000000
0.000000
0.000000
0.000000
0.000000
0.000000
0.000000
0.000000
0.000000
0.000000
0.000000
0.000000
0.000000
0.000000
0.000000
0.000000
0.000000
0.000000
0.000000
0.000000
0.000000
0.000000
0.000000
0.000000
0.000000
0.000000
0.000000
0.000000
0.000000
0.000000
0.000000
0.000000
0.000000
0.000000
0.000000
0.000000
0.000000
0.000000
0.000000
0.000000
0.000000
0.000000
0.000000
0.000000
0.000000
0.000000
0.000000
0.000000
0.000000
0.000000
0.000000
0.000000
0.000000
0.000000
0.000000
0.000000
0.000000
0.000000
0.000000
0.000000
0.000000
0.000000
0.000000
0.000000
0.000000
0.000000
0.000000
0.000000
0.000000
0.000000
0.000000
0.000000
0.000000
0.000000
0.000000
0.000000
0.000000
0.000000
0.000000
0.000000
0.000000
0.000000
0.000000
0.000000
0.000000
0.000000
0.000000
0.000000
0.000000
0.000000
0.000000
0.000000
0.000000
0.000000
0.000000
0.000000
0.000000
0.000000
0.000000
0.000000
0.000000
0.000000
0.000000
0.000000
0.000000
0.000000
0.000000
0.000000
0.000000
0.000000
0.000000
0.000000
0.000000
0.000000
0.000000
0.000000
0.000000
0.000000
0.000000
0.000000
0.000000
0.000000
0.000000
0.000000
0.000000
0.000000
0.000000
0.000000
0.000000
0.000000
0.000000
0.000000
0.000000
0.000000
0.000000
0.000000
0.000000
0.000000
0.000000
0.000000
0.000000
0.000000
0.000000
0.000000
0.000000
0.000000
0.000000
0.000000
0.000000
0.000000
0.000000
0.000000
0.000000
0.000000
0.000000
0.000000
0.000000
0.000000
0.000000
0.000000
0.000000
0.000000
0.000000
0.000000
0.000000
0.000000
0.000000
0.000000
0.000000
0.000000
0.000000
0.000000
0.000000
0.000000
0.000000
0.000000
0.000000
0.000000
0.000000
0.000000
0.000000
0.000000
0.000000
0.000000
0.000000
0.000000
0.000000
0.000000
0.000000
0.000000
0.000000
0.000000
0.000000
0.000000
0.000000
0.000000
0.000000
0.000000
0.000000
0.000000
0.000000
0.000000
0.000000
0.000000
0.000000
0.000000
0.000000
0.000000
0.000000
0.000000
0.000000
0.000000
0.000000
0.000000
0.000000
0.000000
0.000000
0.000000
0.000000
0.000000
0.000000
0.000000
0.000000
0.000000
</DataArray>
<DataArray NumberOfComponents='1' type='Float32' Name='pressure' format='ascii'>
0.000000
0.000000
0.000000
0.000000
0.000000
0.000000
0.000000
0.000000
0.000000
0.000000
0.000000
0.000000
0.000000
0.000000
0.000000
0.000000
0.000000
0.000000
0.000000
0.000000
0.000000
0.000000
0.000000
0.000000
0.000000
0.000000
0.000000
0.000000
0.000000
0.000000
0.000000
0.000000
0.000000
0.000000
0.000000
0.000000
0.000000
0.000000
0.000000
0.000000
0.000000
0.000000
0.000000
0.000000
0.000000
0.000000
0.000000
0.000000
0.000000
0.000000
0.000000
0.000000
0.000000
0.000000
0.000000
0.000000
0.000000
0.000000
564.743591
572.159729
588.665161
3.055090
0.000000
0.000000
0.000000
0.000000
0.000000
0.000000
0.000000
0.000000
0.000000
0.000000
0.000000
0.000000
0.000000
0.000000
0.000000
0.000000
0.000000
0.000000
0.000000
0.000000
0.000000
0.000000
0.000000
0.000000
703.832275
137.105255
1158.192261
299.583344
0.000000
0.000000
0.000000
0.000000
0.000000
0.000000
0.000000
0.000000
0.000000
0.000000
0.000000
0.000000
0.000000
0.000000
0.000000
0.000000
0.000000
0.000000
0.000000
0.000000
0.000000
0.000000
0.000000
0.000000
511.354858
56.200672
459.952606
1257.845459
1107.935181
2238.604980
1793.755737
1246.785278
1497.230835
499.016235
581.117065
0.000000
522.957336
1214.515747
380.010315
677.549744
888.507690
1371.364990
150.825745
1901.358521
2228.388672
995.412476
0.000000
0.000000
2853.064209
2720.515137
0.000000
664.725037
1256.893799
1244.908569
0.000000
1468.334717
0.000000
1895.981812
1058.242310
0.000000
1310.520508
1404.590210
837.076843
0.000000
1173.442383
2156.742432
1065.117554
1246.243164
1144.205933
2339.298828
0.000000
0.000000
2782.840088
1643.859863
800.449646
0.000000
77.175873
1245.942993
0.000000
217.745010
1918.193359
1174.440796
235.285721
0.000000
2034.597656
1315.573120
0.000000
0.000000
1190.529785
2210.241699
1032.304688
1738.718140
197.063828
1333.700928
0.000000
0.000000
2688.398926
470.557159
1290.807495
0.000000
430.571838
868.629822
2264.693115
216.918427
587.001953
825.911926
201.672058
260.587891
613.465149
1761.408203
0.000000
0.000000
1333.583130
1383.283569
0.000000
1716.716431
0.000000
0.000000
0.000000
0.000000
3059.117188
2786.856689
0.000000
784.841736
0.000000
947.944763
1595.879395
0.000000
555.010193
12.410652
0.000000
202.071564
0.000000
1080.457153
856.880981
1050.315186
1392.077148
0.000000
0.000000
16.760288
0.000000
1754.896118
0.000000
0.000000
2064.700684
2105.863525
0.000000
59.266994
0.000000
1779.726440
0.000000
2067.128906
0.000000
0.000000
0.000000
0.000000
0.000000
9.362222
0.000000
0.000000
0.000000
357.393890
804.861572
0.000000
0.000000
74.513344
0.000000
0.000000
1755.123291
2685.583740
1242.123901
315.737610
38.322426
533.120667
1213.595581
0.000000
244.489700
1320.797607
0.000000
897.084473
983.815918
0.000000
1865.838501
0.000000
264.339447
456.714264
493.431305
1469.522949
650.274109
275.376465
0.000000
0.000000
1874.183838
2240.799561
305.318329
855.789795
376.173950
0.000000
464.075287
0.000000
750.308838
0.000000
353.243073
1799.404785
996.292847
0.000000
2737.331543
0.000000
0.000000
203.212234
407.839111
0.000000
0.000000
0.000000
0.000000
0.000000
1218.322266
875.585938
645.487000
0.000000
0.000000
65.939606
0.000000
0.000000
0.000000
0.000000
1508.297852
0.000000
646.356384
0.000000
1610.525635
805.176270
984.397888
778.712219
0.000000
2261.119629
0.000000
895.686523
0.000000
0.000000
1831.910767
2210.005127
0.000000
0.000000
0.000000
1182.216919
1392.036621
0.000000
0.000000
0.000000
979.011108
0.000000
0.000000
0.000000
715.661194
673.125183
0.000000
0.000000
745.462341
0.000000
1693.357544
0.000000
0.000000
0.000000
1545.005127
810.029480
0.000000
0.000000
2683.613037
2321.982178
0.000000
0.000000
3280.467285
1826.244629
0.000000
0.000000
3807.965332
2279.666260
0.000000
0.000000
1645.240479
1346.971191
0.000000
0.000000
2174.072754
1712.856445
0.000000
0.000000
963.493347
1108.377930
0.000000
0.000000
947.253845
0.000000
0.000000
0.000000
157.851471
0.000000
0.000000
0.000000
2193.506104
2441.326416
0.000000
0.000000
1591.352051
0.000000
0.000000
0.000000
2815.947754
2149.534180
0.000000
0.000000
2454.577148
1553.285645
0.000000
0.000000
2528.097900
395.116272
0.000000
0.000000
2527.182861
609.066406
0.000000
0.000000
343.403534
0.000000
0.000000
0.000000
1565.276001
1332.950195
0.000000
0.000000
2182.864258
1436.587646
0.000000
0.000000
1096.023682
10.703341
0.000000
0.000000
1571.352783
139.299820
0.000000
0.000000
2374.242676
796.345459
0.000000
0.000000
2094.655518
1368.499023
0.000000
0.000000
2026.245850
1449.852173
0.000000
0.000000
0.000000
0.000000
0.000000
0.000000
414.953491
1006.805847
0.000000
0.000000
435.641876
17.605030
0.000000
0.000000
336.405273
0.000000
0.000000
0.000000
1089.028809
1242.954834
0.000000
0.000000
625.799988
0.000000
0.000000
0.000000
1206.498413
352.157776
0.000000
0.000000
766.754578
341.980927
925.782288
0.000000
0.000000
0.000000
0.000000
0.000000
0.000000
0.000000
0.000000
0.000000
0.000000
0.000000
0.000000
0.000000
0.000000
0.000000
0.000000
0.000000
0.000000
0.000000
0.000000
0.000000
0.000000
0.000000
0.000000
0.000000
876.299988
981.791565
1986.864014
2127.524170
0.000000
0.000000
0.000000
0.000000
0.000000
0.000000
0.000000
0.000000
0.000000
0.000000
0.000000
0.000000
0.000000
0.000000
0.000000
0.000000
0.000000
0.000000
0.000000
0.000000
0.000000
0.000000
0.000000
0.000000
0.000000
0.000000
0.000000
0.000000
0.000000
0.000000
0.000000
0.000000
0.000000
0.000000
0.000000
0.000000
0.000000
0.000000
0.000000
0.000000
0.000000
0.000000
0.000000
0.000000
0.000000
0.000000
0.000000
0.000000
0.000000
0.000000
0.000000
0.000000
0.000000
0.000000
0.000000
0.000000
0.000000
0.000000
0.000000
0.000000
0.000000
0.000000
0.000000
0.000000
0.000000
0.000000
0.000000
0.000000
0.000000
0.000000
0.000000
0.000000
0.000000
0.000000
0.000000
0.000000
0.000000
0.000000
</DataArray>
</PointData>
<Cells>
<DataArray type='Int32' Name='connectivity' format='ascii'>
0
1
2
3
4
5
6
7
8
9
10
11
12
13
14
15
16
17
18
19
20
21
22
23
24
25
26
27
28
29
30
31
32
33
34
35
36
37
38
39
40
41
42
43
44
45
46
47
48
49
50
51
52
53
54
55
56
57
58
59
60
61
62
63
64
65
66
67
68
69
70
71
72
73
74
75
76
77
78
79
80
81
82
83
84
85
86
87
88
89
90
91
92
93
94
95
96
97
98
99
100
101
102
103
104
105
106
107
108
109
110
111
112
113
114
115
116
117
118
119
120
121
122
123
124
125
126
127
128
129
130
131
132
133
134
135
136
137
138
139
140
141
142
143
144
145
146
147
148
149
150
151
152
153
154
155
156
157
158
159
160
161
162
163
164
165
166
167
168
169
170
171
172
173
174
175
176
177
178
179
180
181
182
183
184
185
186
187
188
189
190
191
192
193
194
195
196
197
198
199
200
201
202
203
204
205
206
207
208
209
210
211
212
213
214
215
216
217
218
219
220
221
222
223
224
225
226
227
228
229
230
231
232
233
234
235
236
237
238
239
240
241
242
243
244
245
246
247
248
249
250
251
252
253
254
255
256
257
258
259
260
261
262
263
264
265
266
267
268
269
270
271
272
273
274
275
276
277
278
279
280
281
282
283
284
285
286
287
288
289
290
291
292
293
294
295
296
297
298
299
300
301
302
303
304
305