<?xml version='1.0' encoding='UTF-8'?>
<VTKFile xmlns='VTK' byte_order='LittleEndian' version='0.1' type='UnstructuredGrid'>
<UnstructuredGrid>
<Piece NumberOfCells='584' NumberOfPoints='584'>
<Points>
<DataArray NumberOfComponents='3' type='Float32' Name='Position' format='ascii'>
-0.075000 -0.075000 0.000000
-0.075000 -0.050000 0.000000
-0.075000 -0.025000 0.000000
-0.075000 0.000000 0.000000
-0.075000 0.025000 0.000000
-0.075000 0.050000 0.000000
-0.075000 0.075000 0.000000
-0.075000 0.100000 0.000000
-0.075000 0.125000 0.000000
-0.075000 0.150000 0.000000
-0.075000 0.175000 0.000000
-0.075000 0.200000 0.000000
-0.075000 0.225000 0.000000
-0.075000 0.250000 0.000000
-0.075000 0.275000 0.000000
-0.075000 0.300000 0.000000
-0.075000 0.325000 0.000000
-0.075000 0.350000 0.000000
-0.075000 0.375000 0.000000
-0.075000 0.400000 0.000000
-0.075000 0.425000 0.000000
-0.075000 0.450000 0.000000
-0.075000 0.475000 0.000000
-0.075000 0.500000 0.000000
-0.075000 0.525000 0.000000
-0.075000 0.550000 0.000000
-0.075000 0.575000 0.000000
-0.075000 0.600000 0.000000
-0.050000 -0.075000 0.000000
-0.050000 -0.050000 0.000000
-0.050000 -0.025000 0.000000
-0.050000 0.000000 0.000000
-0.050000 0.025000 0.000000
-0.050000 0.050000 0.000000
-0.050000 0.075000 0.000000
-0.050000 0.100000 0.000000
-0.050000 0.125000 0.000000
-0.050000 0.150000 0.000000
-0.050000 0.175000 0.000000
-0.050000 0.200000 0.000000
-0.050000 0.225000 0.000000
-0.050000 0.250000 0.000000
-0.050000 0.275000 0.000000
-0.050000 0.300000 0.000000
-0.050000 0.325000 0.000000
-0.050000 0.350000 0.000000
-0.050000 0.375000 0.000000
-0.050000 0.400000 0.000000
-0.050000 0.425000 0.000000
-0.050000 0.450000 0.000000
-0.050000 0.475000 0.000000
-0.050000 0.500000 0.000000
-0.050000 0.525000 0.000000
-0.050000 0.550000 0.000000
-0.050000 0.575000 0.000000
-0.050000 0.600000 0.000000
-0.025000 -0.075000 0.000000
-0.025000 -0.050000 0.000000
-0.025000 -0.025000 0.000000
-0.025000 0.000000 0.000000
-0.025000 0.025000 0.000000
-0.025000 0.050000 0.000000
-0.025000 0.075000 0.000000
-0.025000 0.100000 0.000000
-0.025000 0.125000 0.000000
-0.025000 0.150000 0.000000
-0.025000 0.175000 0.000000
-0.025000 0.200000 0.000000
-0.025000 0.225000 0.000000
-0.025000 0.250000 0.000000
-0.025000 0.275000 0.000000
-0.025000 0.300000 0.000000
-0.025000 0.325000 0.000000
-0.025000 0.350000 0.000000
-0.025000 0.375000 0.000000
-0.025000 0.400000 0.000000
-0.025000 0.425000 0.000000
-0.025000 0.450000 0.000000
-0.025000 0.475000 0.000000
-0.025000 0.500000 0.000000
-0.025000 0.525000 0.000000
-0.025000 0.550000 0.000000
-0.025000 0.575000 0.000000
-0.025000 0.600000 0.000000
0.000000 -0.075000 0.000000
0.000000 -0.050000 0.000000
0.000000 -0.025000 0.000000
0.000000 0.000000 0.000000
0.000000 0.025000 0.000000
0.000000 0.050000 0.000000
0.000000 0.075000 0.000000
0.000000 0.100000 0.000000
0.000000 0.125000 0.000000
0.000000 0.150000 0.000000
0.000000 0.175000 0.000000
0.000000 0.200000 0.000000
0.000000 0.225000 0.000000
0.000000 0.250000 0.000000
0.000000 0.275000 0.000000
0.000000 0.300000 0.000000
0.000000 0.325000 0.000000
0.000000 0.350000 0.000000
0.000000 0.375000 0.000000
0.000000 0.400000 0.000000
0.000000 0.425000 0.000000
0.000000 0.450000 0.000000
0.000000 0.475000 0.000000
0.000000 0.500000 0.000000
0.000000 0.525000 0.000000
0.000000 0.550000 0.000000
0.000000 0.575000 0.000000
0.000000 0.600000 0.000000
0.025000 -0.075000 0.000000
0.025000 -0.050000 0.000000
0.025000 -0.025000 0.000000
0.025000 0.000000 0.000000
0.187099 0.025071 0.000000
0.163913 0.028692 0.000000
0.142202 0.021664 0.000000
0.098511 0.023522 0.000000
0.223676 0.047942 0.000000
0.045254 0.023451 0.000000
0.301563 0.057069 0.000000
0.201549 0.039988 0.000000
0.117463 0.034262 0.000000
0.087425 0.045278 0.000000
0.156537 0.051441 0.000000
0.134979 0.057313 0.000000
0.070031 0.024584 0.000000
0.022390 0.030028 0.000000
0.030085 0.054094 0.000000
0.025377 0.071079 0.000000
0.070958 0.064594 0.000000
0.033850 0.096073 0.000000
0.025438 0.105774 0.000000
0.062644 0.092426 0.000000
0.050000 -0.075000 0.000000
0.050000 -0.050000 0.000000
0.050000 -0.025000 0.000000
0.050000 0.000000 0.000000
0.219544 0.021503 0.000000
0.264671 0.066134 0.000000
0.364666 0.077793 0.000000
0.374917 0.046081 0.000000
0.343119 0.086169 0.000000
0.366943 0.103651 0.000000
0.334167 0.055747 0.000000
0.466185 0.047681 0.000000
0.247516 0.045637 0.000000
0.274724 0.022446 0.000000
0.321037 0.074718 0.000000
0.288643 0.041427 0.000000
0.056108 0.048268 0.000000
0.298558 0.078577 0.000000
0.136740 0.086180 0.000000
0.187860 0.064698 0.000000
0.114561 0.057992 0.000000
0.160953 0.072622 0.000000
0.076678 0.086418 0.000000
0.096383 0.074756 0.000000
0.075000 -0.075000 0.000000
0.075000 -0.050000 0.000000
0.075000 -0.025000 0.000000
0.075000 0.000000 0.000000
0.251864 0.026408 0.000000
0.349840 0.044824 0.000000
0.359008 0.024016 0.000000
0.326115 0.022056 0.000000
0.482778 0.042440 0.000000
0.577049 0.031163 0.000000
0.597967 0.022877 0.000000
0.392833 0.062519 0.000000
0.508393 0.092442 0.000000
0.526891 0.063308 0.000000
0.409256 0.043076 0.000000
0.290581 0.107797 0.000000
0.266974 0.092821 0.000000
0.254407 0.084838 0.000000
0.233729 0.073606 0.000000
0.174407 0.089401 0.000000
0.199284 0.081174 0.000000
0.307743 0.104795 0.000000
0.275296 0.119429 0.000000
0.127702 0.100182 0.000000
0.100000 -0.075000 0.000000
0.100000 -0.050000 0.000000
0.100000 -0.025000 0.000000
0.100000 0.000000 0.000000
0.415762 0.021666 0.000000
0.384133 0.025789 0.000000
0.545478 0.023219 0.000000
0.780726 0.031274 0.000000
0.307294 0.028765 0.000000
0.661617 0.022089 0.000000
0.673662 0.042897 0.000000
0.643378 0.067317 0.000000
0.593430 0.048109 0.000000
0.626029 0.023997 0.000000
0.430156 0.049793 0.000000
0.443994 0.022868 0.000000
0.506752 0.071462 0.000000
0.525481 0.087204 0.000000
0.427893 0.088055 0.000000
0.214316 0.077043 0.000000
0.444998 0.059360 0.000000
0.446867 0.085247 0.000000
0.348594 0.115959 0.000000
0.332191 0.109821 0.000000
0.125000 -0.075000 0.000000
0.125000 -0.050000 0.000000
0.125000 -0.025000 0.000000
0.125000 0.000000 0.000000
0.798950 0.025436 0.000000
0.644689 0.036647 0.000000
0.964735 0.064535 0.000000
0.930000 0.029705 0.000000
0.939902 0.078026 0.000000
0.472202 0.024024 0.000000
0.747104 0.045481 0.000000
0.816310 0.046657 0.000000
0.753770 0.021159 0.000000
0.652666 0.078010 0.000000
0.786376 0.076219 0.000000
0.730359 0.041791 0.000000
0.599336 0.086541 0.000000
0.483188 0.072183 0.000000
0.405350 0.083001 0.000000
0.521765 0.035451 0.000000
0.691673 0.055061 0.000000
0.389112 0.085405 0.000000
0.550976 0.067307 0.000000
0.366714 0.123993 0.000000
0.150000 -0.075000 0.000000
0.150000 -0.050000 0.000000
0.150000 -0.025000 0.000000
0.150000 0.000000 0.000000
0.984648 0.105855 0.000000
0.937506 0.051024 0.000000
0.986358 0.188605 0.000000
0.963015 0.247040 0.000000
0.966818 0.040086 0.000000
0.948072 0.295517 0.000000
0.916601 0.060431 0.000000
0.933933 0.101743 0.000000
0.909953 0.032738 0.000000
0.882184 0.070703 0.000000
0.889184 0.022286 0.000000
0.714698 0.021253 0.000000
0.823765 0.024775 0.000000
0.851848 0.022325 0.000000
0.696952 0.032082 0.000000
0.612121 0.067491 0.000000
0.551181 0.044549 0.000000
0.623503 0.051295 0.000000
0.573927 0.057756 0.000000
0.511518 0.022533 0.000000
0.175000 -0.075000 0.000000
0.175000 -0.050000 0.000000
0.175000 -0.025000 0.000000
0.175000 0.000000 0.000000
0.813527 0.336758 0.000000
0.981681 0.074062 0.000000
1.004104 0.181203 0.000000
1.000152 0.096359 0.000000
1.005154 0.065626 0.000000
0.978154 0.243233 0.000000
0.994790 0.020987 0.000000
0.981198 0.130573 0.000000
0.958223 0.201111 0.000000
0.992040 0.041319 0.000000
0.940604 0.137454 0.000000
0.986285 0.154059 0.000000
0.910302 0.098513 0.000000
0.865558 0.059951 0.000000
0.796181 0.068374 0.000000
0.927008 0.120223 0.000000
0.881337 0.041855 0.000000
0.753065 0.065358 0.000000
0.687466 0.071897 0.000000
0.713963 0.069404 0.000000
0.200000 -0.075000 0.000000
0.200000 -0.050000 0.000000
0.200000 -0.025000 0.000000
0.200000 0.000000 0.000000
0.903458 0.704071 0.000000
1.000117 0.226774 0.000000
0.940265 0.478304 0.000000
0.993905 0.260268 0.000000
0.946058 0.332445 0.000000
0.937254 0.364307 0.000000
0.961394 0.381404 0.000000
1.004931 0.326661 0.000000
0.981546 0.218187 0.000000
0.921331 0.332192 0.000000
0.991297 0.288214 0.000000
0.956731 0.020925 0.000000
0.927066 0.312066 0.000000
0.961365 0.092650 0.000000
0.862748 0.087425 0.000000
0.935732 0.159380 0.000000
0.970413 0.177476 0.000000
0.901894 0.074122 0.000000
0.849049 0.045230 0.000000
0.776405 0.057043 0.000000
0.225000 -0.075000 0.000000
0.225000 -0.050000 0.000000
0.225000 -0.025000 0.000000
0.225000 0.000000 0.000000
0.972189 0.348349 0.000000
0.970440 1.058759 0.000000
0.960589 0.323158 0.000000
0.885368 0.412655 0.000000
0.833432 0.300706 0.000000
0.892584 0.458217 0.000000
0.956147 0.481258 0.000000
0.991846 0.391152 0.000000
0.995034 0.341345 0.000000
0.942958 0.400744 0.000000
0.989598 0.374060 0.000000
0.930304 0.401035 0.000000
0.808030 0.315648 0.000000
0.884928 0.311128 0.000000
0.964293 0.280850 0.000000
0.972785 0.294534 0.000000
0.934538 0.258252 0.000000
0.962199 0.130894 0.000000
0.901642 0.116085 0.000000
0.833112 0.061434 0.000000
0.250000 -0.075000 0.000000
0.250000 -0.050000 0.000000
0.250000 -0.025000 0.000000
0.250000 0.000000 0.000000
0.983229 0.939874 0.000000
0.887743 0.856718 0.000000
0.900226 0.514710 0.000000
0.937768 0.527235 0.000000
0.821298 0.950836 0.000000
0.970347 0.594443 0.000000
0.823388 0.833080 0.000000
0.886251 0.733780 0.000000
0.790369 0.481650 0.000000
0.965862 0.461734 0.000000
0.871472 0.327457 0.000000
0.918053 0.370089 0.000000
0.936287 0.433430 0.000000
0.738157 0.241247 0.000000
0.916959 0.357150 0.000000
0.873940 0.166456 0.000000
0.899675 0.317699 0.000000
1.005071 0.142478 0.000000
0.930606 0.202635 0.000000
0.951498 0.160689 0.000000
0.275000 -0.075000 0.000000
0.275000 -0.050000 0.000000
0.275000 -0.025000 0.000000
0.275000 0.000000 0.000000
0.300000 -0.075000 0.000000
0.300000 -0.050000 0.000000
0.300000 -0.025000 0.000000
0.300000 0.000000 0.000000
0.325000 -0.075000 0.000000
0.325000 -0.050000 0.000000
0.325000 -0.025000 0.000000
0.325000 0.000000 0.000000
0.350000 -0.075000 0.000000
0.350000 -0.050000 0.000000
0.350000 -0.025000 0.000000
0.350000 0.000000 0.000000
0.375000 -0.075000 0.000000
0.375000 -0.050000 0.000000
0.375000 -0.025000 0.000000
0.375000 0.000000 0.000000
0.400000 -0.075000 0.000000
0.400000 -0.050000 0.000000
0.400000 -0.025000 0.000000
0.400000 0.000000 0.000000
0.425000 -0.075000 0.000000
0.425000 -0.050000 0.000000
0.425000 -0.025000 0.000000
0.425000 0.000000 0.000000
0.450000 -0.075000 0.000000
0.450000 -0.050000 0.000000
0.450000 -0.025000 0.000000
0.450000 0.000000 0.000000
0.475000 -0.075000 0.000000
0.475000 -0.050000 0.000000
0.475000 -0.025000 0.000000
0.475000 0.000000 0.000000
0.500000 -0.075000 0.000000
0.500000 -0.050000 0.000000
0.500000 -0.025000 0.000000
0.500000 0.000000 0.000000
0.525000 -0.075000 0.000000
0.525000 -0.050000 0.000000
0.525000 -0.025000 0.000000
0.525000 0.000000 0.000000
0.550000 -0.075000 0.000000
0.550000 -0.050000 0.000000
0.550000 -0.025000 0.000000
0.550000 0.000000 0.000000
0.575000 -0.075000 0.000000
0.575000 -0.050000 0.000000
0.575000 -0.025000 0.000000
0.575000 0.000000 0.000000
0.600000 -0.075000 0.000000
0.600000 -0.050000 0.000000
0.600000 -0.025000 0.000000
0.600000 0.000000 0.000000
0.625000 -0.075000 0.000000
0.625000 -0.050000 0.000000
0.625000 -0.025000 0.000000
0.625000 0.000000 0.000000
0.650000 -0.075000 0.000000
0.650000 -0.050000 0.000000
0.650000 -0.025000 0.000000
0.650000 0.000000 0.000000
0.675000 -0.075000 0.000000
0.675000 -0.050000 0.000000
0.675000 -0.025000 0.000000
0.675000 0.000000 0.000000
0.700000 -0.075000 0.000000
0.700000 -0.050000 0.000000
0.700000 -0.025000 0.000000
0.700000 0.000000 0.000000
0.725000 -0.075000 0.000000
0.725000 -0.050000 0.000000
0.725000 -0.025000 0.000000
0.725000 0.000000 0.000000
0.750000 -0.075000 0.000000
0.750000 -0.050000 0.000000
0.750000 -0.025000 0.000000
0.750000 0.000000 0.000000
0.775000 -0.075000 0.000000
0.775000 -0.050000 0.000000
0.775000 -0.025000 0.000000
0.775000 0.000000 0.000000
0.800000 -0.075000 0.000000
0.800000 -0.050000 0.000000
0.800000 -0.025000 0.000000
0.800000 0.000000 0.000000
0.825000 -0.075000 0.000000
0.825000 -0.050000 0.000000
0.825000 -0.025000 0.000000
0.825000 0.000000 0.000000
0.850000 -0.075000 0.000000
0.850000 -0.050000 0.000000
0.850000 -0.025000 0.000000
0.850000 0.000000 0.000000
0.875000 -0.075000 0.000000
0.875000 -0.050000 0.000000
0.875000 -0.025000 0.000000
0.875000 0.000000 0.000000
0.900000 -0.075000 0.000000
0.900000 -0.050000 0.000000
0.900000 -0.025000 0.000000
0.900000 0.000000 0.000000
0.925000 -0.075000 0.000000
0.925000 -0.050000 0.000000
0.925000 -0.025000 0.000000
0.925000 0.000000 0.000000
0.950000 -0.075000 0.000000
0.950000 -0.050000 0.000000
0.950000 -0.025000 0.000000
0.950000 0.000000 0.000000
0.975000 -0.075000 0.000000
0.975000 -0.050000 0.000000
0.975000 -0.025000 0.000000
0.975000 0.000000 0.000000
1.000000 -0.075000 0.000000
1.000000 -0.050000 0.000000
1.000000 -0.025000 0.000000
1.000000 0.000000 0.000000
1.025000 -0.075000 0.000000
1.025000 -0.050000 0.000000
1.025000 -0.025000 0.000000
1.025000 0.000000 0.000000
1.025000 0.025000 0.000000
1.025000 0.050000 0.000000
1.025000 0.075000 0.000000
1.025000 0.100000 0.000000
1.025000 0.125000 0.000000
1.025000 0.150000 0.000000
1.025000 0.175000 0.000000
1.025000 0.200000 0.000000
1.025000 0.225000 0.000000
1.025000 0.250000 0.000000
1.025000 0.275000 0.000000
1.025000 0.300000 0.000000
1.025000 0.325000 0.000000
1.025000 0.350000 0.000000
1.025000 0.375000 0.000000
1.025000 0.400000 0.000000
1.025000 0.425000 0.000000
1.025000 0.450000 0.000000
1.025000 0.475000 0.000000
1.025000 0.500000 0.000000
1.025000 0.525000 0.000000
1.025000 0.550000 0.000000
1.025000 0.575000 0.000000
1.025000 0.600000 0.000000
1.050000 -0.075000 0.000000
1.050000 -0.050000 0.000000
1.050000 -0.025000 0.000000
1.050000 0.000000 0.000000
1.050000 0.025000 0.000000
1.050000 0.050000 0.000000
1.050000 0.075000 0.000000
1.050000 0.100000 0.000000
1.050000 0.125000 0.000000
1.050000 0.150000 0.000000
1.050000 0.175000 0.000000
1.050000 0.200000 0.000000
1.050000 0.225000 0.000000
1.050000 0.250000 0.000000
1.050000 0.275000 0.000000
1.050000 0.300000 0.000000
1.050000 0.325000 0.000000
1.050000 0.350000 0.000000
1.050000 0.375000 0.000000
1.050000 0.400000 0.000000
1.050000 0.425000 0.000000
1.050000 0.450000 0.000000
1.050000 0.475000 0.000000
1.050000 0.500000 0.000000
1.050000 0.525000 0.000000
1.050000 0.550000 0.000000
1.050000 0.575000 0.000000
1.050000 0.600000 0.000000
1.075000 -0.075000 0.000000
1.075000 -0.050000 0.000000
1.075000 -0.025000 0.000000
1.075000 0.000000 0.000000
1.075000 0.025000 0.000000
1.075000 0.050000 0.000000
1.075000 0.075000 0.000000
1.075000 0.100000 0.000000
1.075000 0.125000 0.000000
1.075000 0.150000 0.000000
1.075000 0.175000 0.000000
1.075000 0.200000 0.000000
1.075000 0.225000 0.000000
1.075000 0.250000 0.000000
1.075000 0.275000 0.000000
1.075000 0.300000 0.000000
1.075000 0.325000 0.000000
1.075000 0.350000 0.000000
1.075000 0.375000 0.000000
1.075000 0.400000 0.000000
1.075000 0.425000 0.000000
1.075000 0.450000 0.000000
1.075000 0.475000 0.000000
1.075000 0.500000 0.000000
1.075000 0.525000 0.000000
1.075000 0.550000 0.000000
1.075000 0.575000 0.000000
1.075000 0.600000 0.000000
1.100000 -0.075000 0.000000
1.100000 -0.050000 0.000000
1.100000 -0.025000 0.000000
1.100000 0.000000 0.000000
1.100000 0.025000 0.000000
1.100000 0.050000 0.000000
1.100000 0.075000 0.000000
1.100000 0.100000 0.000000
1.100000 0.125000 0.000000
1.100000 0.150000 0.000000
1.100000 0.175000 0.000000
1.100000 0.200000 0.000000
1.100000 0.225000 0.000000
1.100000 0.250000 0.000000
1.100000 0.275000 0.000000
1.100000 0.300000 0.000000
1.100000 0.325000 0.000000
1.100000 0.350000 0.000000
1.100000 0.375000 0.000000
1.100000 0.400000 0.000000
1.100000 0.425000 0.000000
1.100000 0.450000 0.000000
1.100000 0.475000 0.000000
1.100000 0.500000 0.000000
1.100000 0.525000 0.000000
1.100000 0.550000 0.000000
1.100000 0.575000 0.000000
1.100000 0.600000 0.000000
</DataArray>
</Points>
<PointData>
<DataArray NumberOfComponents='1' type='Int32' Name='ParticleType' format='ascii'>
3
3
3
3
3
3
3
3
3
3
3
3
3
3
3
3
3
3
3
3
3
3
3
3
3
3
2
2
3
3
3
3
3
3
3
3
3
3
3
3
3
3
3
3
3
3
3
3
3
3
3
3
3
3
2
2
3
3
2
2
2
2
2
2
2
2
2
2
2
2
2
2
2
2
2
2
2
2
2
2
2
2
2
2
3
3
2
2
2
2
2
2
2
2
2
2
2
2
2
2
2
2
2
2
2
2
2
2
2
2
2
2
3
3
2
2
0
0
0
0
0
0
0
0
0
0
0
0
0
0
0
0
0
0
0
0
3
3
2
2
0
0
0
0
0
0
0
0
0
0
0
0
0
0
0
0
0
0
0
0
3
3
2
2
0
0
0
0
0
0
0
0
0
0
0
0
0
0
0
0
0
0
0
0
3
3
2
2
0
0
0
0
0
0
0
0
0
0
0
0
0
0
0
0
0
0
0
0
3
3
2
2
0
0
0
0
0
0
0
0
0
0
0
0
0
0
0
0
0
0
0
0
3
3
2
2
0
0
0
0
0
0
0
0
0
0
0
0
0
0
0
0
0
0
0
0
3
3
2
2
0
0
0
0
0
0
0
0
0
0
0
0
0
0
0
0
0
0
0
0
3
3
2
2
0
0
0
0
0
0
0
0
0
0
0
0
0
0
0
0
0
0
0
0
3
3
2
2
0
0
0
0
0
0
0
0
0
0
0
0
0
0
0
0
0
0
0
0
3
3
2
2
0
0
0
0
0
0
0
0
0
0
0
0
0
0
0
0
0
0
0
0
3
3
2
2
3
3
2
2
3
3
2
2
3
3
2
2
3
3
2
2
3
3
2
2
3
3
2
2
3
3
2
2
3
3
2
2
3
3
2
2
3
3
2
2
3
3
2
2
3
3
2
2
3
3
2
2
3
3
2
2
3
3
2
2
3
3
2
2
3
3
2
2
3
3
2
2
3
3
2
2
3
3
2
2
3
3
2
2
3
3
2
2
3
3
2
2
3
3
2
2
3
3
2
2
3
3
2
2
3
3
2
2
3
3
2
2
3
3
2
2
3
3
2
2
2
2
2
2
2
2
2
2
2
2
2
2
2
2
2
2
2
2
2
2
2
2
2
2
3
3
2
2
2
2
2
2
2
2
2
2
2
2
2
2
2
2
2
2
2
2
2
2
2
2
2
2
3
3
3
3
3
3
3
3
3
3
3
3
3
3
3
3
3
3
3
3
3
3
3
3
3
3
2
2
3
3
3
3
3
3
3
3
3
3
3
3
3
3
3
3
3
3
3
3
3
3
3
3
3
3
2
2
</DataArray>
<DataArray NumberOfComponents='1' type='Float32' Name='Velocity' format='ascii'>
0.000000
0.000000
0.000000
0.000000
0.000000
0.000000
0.000000
0.000000
0.000000
0.000000
0.000000
0.000000
0.000000
0.000000
0.000000
0.000000
0.000000
0.000000
0.000000
0.000000
0.000000
0.000000
0.000000
0.000000
0.000000
0.000000
0.000000
0.000000
0.000000
0.000000
0.000000
0.000000
0.000000
0.000000
0.000000
0.000000
0.000000
0.000000
0.000000
0.000000
0.000000
0.000000
0.000000
0.000000
0.000000
0.000000
0.000000
0.000000
0.000000
0.000000
0.000000
0.000000
0.000000
0.000000
0.000000
0.000000
0.000000
0.000000
0.000000
0.000000
0.000000
0.000000
0.000000
0.000000
0.000000
0.000000
0.000000
0.000000
0.000000
0.000000
0.000000
0.000000
0.000000
0.000000
0.000000
0.000000
0.000000
0.000000
0.000000
0.000000
0.000000
0.000000
0.000000
0.000000
0.000000
0.000000
0.000000
0.000000
0.000000
0.000000
0.000000
0.000000
0.000000
0.000000
0.000000
0.000000
0.000000
0.000000
0.000000
0.000000
0.000000
0.000000
0.000000
0.000000
0.000000
0.000000
0.000000
0.000000
0.000000
0.000000
0.000000
0.000000
0.000000
0.000000
0.000000
0.000000
0.255535
0.375994
0.256674
0.286866
0.852760
0.217559
1.200509
0.634850
0.219042
0.108692
0.477351
0.087023
0.477196
0.143251
0.230668
0.117018
0.278221
0.272386
0.389692
0.427198
0.000000
0.000000
0.000000
0.000000
0.120366
0.775874
0.876119
0.524771
0.950078
1.121598
0.461586
1.193005
0.755340
0.709623
0.797864
0.377043
0.347089
0.642941
0.622853
0.286163
0.562442
0.338076
0.344301
0.454095
0.000000
0.000000
0.000000
0.000000
0.427668
0.751116
0.904790
0.570460
1.374625
1.032626
0.805203
0.992763
1.402624
1.193938
0.607169
0.578394
1.117039
0.937266
0.765727
0.291488
0.494495
0.593399
0.837182
0.267785
0.000000
0.000000
0.000000
0.000000
0.653102
0.559646
1.071690
1.560856
0.551489
1.537129
1.292861
1.375393
1.352378
1.544405
0.664526
1.050615
1.294639
1.406269
1.155169
0.713218
0.748056
1.130266
0.824630
0.733658
0.000000
0.000000
0.000000
0.000000
1.598167
1.137105
0.685563
0.717458
0.875084
0.578606
1.516885
1.976431
1.253592
1.399106
1.486008
1.783848
1.389386
1.213928
1.129411
1.076387
1.524190
0.938233
1.364640
1.071915
0.000000
0.000000
0.000000
0.000000
0.771576
0.936347
1.509413
1.611910
0.355718
1.625928
1.236287
0.851669
0.693427
1.184348
1.110146
1.645966
1.191885
1.624179
1.397886
1.429624
1.192439
1.486335
1.323496
1.118563
0.000000
0.000000
0.000000
0.000000
1.160334
0.654404
1.258911
0.406716
0.245317
1.514220
0.495932
0.912663
1.019111
0.490314
1.348586
1.090866
1.060354
1.315176
1.567767
1.317632
1.197999
1.848392
1.479094
1.857739
0.000000
0.000000
0.000000
0.000000
1.206708
1.016687
0.598404
1.339779
1.132841
0.998268
0.915454
1.490409
1.656670
0.498427
1.366772
0.514740
1.273499
0.955216
1.063325
1.455064
1.655169
1.288858
1.027154
1.502278
0.000000
0.000000
0.000000
0.000000
1.459731
2.192282
1.164916
0.368679
1.328900
0.493971
0.676170
0.747715
1.415052
0.745864
0.694812
0.501557
0.949517
0.458572
1.297513
1.033594
0.974009
0.371694
0.859628
1.721533
0.000000
0.000000
0.000000
0.000000
1.462113
1.539151
0.769760
0.810144
1.757416
0.901508
1.498851
1.203930
0.779046
0.648583
0.596581
0.792082
0.704357
1.140404
0.792391
0.631204
1.241866
0.652807
0.916592
1.301997
0.000000
0.000000
0.000000
0.000000
0.000000
0.000000
0.000000
0.000000
0.000000
0.000000
0.000000
0.000000
0.000000
0.000000
0.000000
0.000000
0.000000
0.000000
0.000000
0.000000
0.000000
0.000000
0.000000
0.000000
0.000000
0.000000
0.000000
0.000000
0.000000
0.000000
0.000000
0.000000
0.000000
0.000000
0.000000
0.000000
0.000000
0.000000
0.000000
0.000000
0.000000
0.000000
0.000000
0.000000
0.000000
0.000000
0.000000
0.000000
0.000000
0.000000
0.000000
0.000000
0.000000
0.000000
0.000000
0.000000
0.000000
0.000000
0.000000
0.000000
0.000000
0.000000
0.000000
0.000000
0.000000
0.000000
0.000000
0.000000
0.000000
0.000000
0.000000
0.000000
0.000000
0.000000
0.000000
0.000000
0.000000
0.000000
0.000000
0.000000
0.000000
0.000000
0.000000
0.000000
0.000000
0.000000
0.000000
0.000000
0.000000
0.000000
0.000000
0.000000
0.000000
0.000000
0.000000
0.000000
0.000000
0.000000
0.000000
0.000000
0.000000
0.000000
0.000000
0.000000
0.000000
0.000000
0.000000
0.000000
0.000000
0.000000
0.000000
0.000000
0.000000
0.000000
0.000000
0.000000
0.000000
0.000000
0.000000
0.000000
0.000000
0.000000
0.000000
0.000000
0.000000
0.000000
0.000000
0.000000
0.000000
0.000000
0.000000
0.000000
0.000000
0.000000
0.000000
0.000000
0.000000
0.000000
0.000000
0.000000
0.000000
0.000000
0.000000
0.000000
0.000000
0.000000
0.000000
0.000000
0.000000
0.000000
0.000000
0.000000
0.000000
0.000000
0.000000
0.000000
0.000000
0.000000
0.000000
0.000000
0.000000
0.000000
0.000000
0.000000
0.000000
0.000000
0.000000
0.000000
0.000000
0.000000
0.000000
0.000000
0.000000
0.000000
0.000000
0.000000
0.000000
0.000000
0.000000
0.000000
0.000000
0.000000
0.000000
0.000000
0.000000
0.000000
0.000000
0.000000
0.000000
0.000000
0.000000
0.000000
0.000000
0.000000
0.000000
0.000000
0.000000
0.000000
0.000000
0.000000
0.000000
0.000000
0.000000
0.000000
0.000000
0.000000
0.000000
0.000000
0.000000
0.000000
0.000000
0.000000
0.000000
0.000000
0.000000
0.000000
0.000000
0.000000
0.000000
0.000000
0.000000
0.000000
0.000000
0.000000
0.000000
0.000000
0.000000
0.000000
0.000000
0.000000
0.000000
0.000000
</DataArray>
<DataArray NumberOfComponents='1' type='Float32' Name='pressure' format='ascii'>
0.000000
0.000000
0.000000
0.000000
0.000000
0.000000
0.000000
0.000000
0.000000
0.000000
0.000000
0.000000
0.000000
0.000000
0.000000
0.000000
0.000000
0.000000
0.000000
0.000000
0.000000
0.000000
0.000000
0.000000
0.000000
0.000000
0.000000
0.000000
0.000000
0.000000
0.000000
0.000000
0.000000
0.000000
0.000000
0.000000
0.000000
0.000000
0.000000
0.000000
0.000000
0.000000
0.000000
0.000000
0.000000
0.000000
0.000000
0.000000
0.000000
0.000000
0.000000
0.000000
0.000000
0.000000
0.000000
0.000000
0.000000
0.000000
267.336914
458.308136
1382.393677
7.178090
0.000000
0.000000
0.000000
0.000000
0.000000
0.000000
0.000000
0.000000
0.000000
0.000000
0.000000
0.000000
0.000000
0.000000
0.000000
0.000000
0.000000
0.000000
0.000000
0.000000
0.000000
0.000000
0.000000
0.000000
210.600006
0.000000
1429.013184
48.028542
589.894836
0.000000
0.000000
0.000000
0.000000
0.000000
0.000000
0.000000
0.000000
0.000000
0.000000
0.000000
0.000000
0.000000
0.000000
0.000000
0.000000
0.000000
0.000000
0.000000
0.000000
0.000000
0.000000
0.000000
0.000000
0.000000
0.000000
0.000000
428.605133
1222.860107
1779.489624
1101.330078
0.000000
432.994019
285.779419
1088.571167
786.667053
1308.038208
1147.639404
2091.250488
1118.135620
510.931976
1277.354492
0.000000
0.000000
0.000000
0.000000
0.000000
1518.151733
2175.879639
0.000000
0.000000
0.000000
48.089760
920.604797
0.000000
0.000000
752.366272
0.000000
807.192810
970.879700
520.448608
0.000000
319.909546
0.000000
7.921152
0.000000
0.000000
0.000000
0.000000
0.000000
0.000000
1560.734131
2196.091797
753.349731
1035.605225
902.716370
350.870483
0.000000
555.299438
986.403687
654.553772
0.000000
441.878601
834.906311
0.000000
0.000000
1139.699341
0.000000
0.000000
0.000000
0.000000
0.000000
0.000000
0.000000
0.000000
1915.190796
1813.609497
2270.322998
687.192017
0.000000
305.980713
1464.351685
56.091652
0.000000
0.000000
0.000000
725.025635
1947.921875
511.036957
0.000000
0.000000
0.000000
631.465942
161.061752
0.000000
0.000000
0.000000
0.000000
0.000000
1246.576294
0.000000
1369.774292
262.848083
3923.566406
2776.013184
0.000000
0.000000
1127.836426
0.000000
0.000000
0.000000
0.000000
0.000000
0.000000
0.000000
0.000000
0.000000
1862.721924
0.000000
0.000000
0.000000
0.000000
0.000000
1931.735596
1884.157104
0.000000
731.144043
527.853027
0.000000
940.419678
0.000000
2979.027100
1525.305786
2254.266113
835.825562
1523.972168
1478.698975
1666.282227
0.000000
567.481873
0.000000
780.438904
617.215698
0.000000
362.869659
0.000000
0.000000
499.078705
284.016815
0.000000
4222.425293
2446.516846
749.025879
3506.197021
0.000000
2264.225342
178.714508
0.000000
0.000000
0.000000
0.000000
0.000000
2153.647705
0.000000
0.000000
1376.234009
0.000000
0.000000
0.000000
0.000000
0.000000
1238.086670
828.086792
0.000000
0.000000
0.000000
0.000000
254.034760
0.000000
0.000000
0.000000
0.000000
0.000000
0.000000
3556.243652
0.000000
0.000000
0.000000
0.000000
0.000000
2271.768555
906.860107
0.000000
0.000000
0.000000
2548.349609
1765.872681
0.000000
0.000000
0.000000
0.000000
0.000000
0.000000
0.000000
0.000000
0.000000
0.000000
0.000000
0.000000
0.000000
0.000000
602.512634
122.347992
0.000000
1583.607666
0.000000
0.000000
0.000000
0.000000
1327.077759
1397.045166
0.000000
0.000000
0.000000
0.000000
0.000000
0.000000
0.000000
0.000000
0.000000
0.000000
0.000000
0.000000
0.000000
0.000000
0.000000
0.000000
0.000000
2153.318359
0.000000
0.000000
0.000000
0.000000
2700.535889
3072.965576
0.000000
0.000000
1030.746216
1139.424805
0.000000
0.000000
2582.339111
2408.116943
0.000000
0.000000
1317.182495
626.335083
0.000000
0.000000
972.774841
55.579792
0.000000
0.000000
1811.344360
638.723511
0.000000
0.000000
2995.517334
3353.864258
0.000000
0.000000
1959.237549
1522.026123
0.000000
0.000000
721.381531
0.000000
0.000000
0.000000
174.671509
0.000000
0.000000
0.000000
43.661781
353.083679
0.000000
0.000000
454.213135
0.000000
0.000000
0.000000
0.000000
0.000000
0.000000
0.000000
1872.547852
2008.216064
0.000000
0.000000
1866.490479
1968.044189
0.000000
0.000000
1924.705322
1318.884766
0.000000
0.000000
1651.454834
0.000000
0.000000
0.000000
2034.595703
0.000000
0.000000
0.000000
2775.982178
2452.260742
0.000000
0.000000
3006.516602
2175.819092
0.000000
0.000000
1055.157593
0.000000
0.000000
0.000000
961.970764
917.971497
0.000000
0.000000
1165.056885
1770.894409
0.000000
0.000000
1778.137085
710.703308
0.000000
0.000000
881.697571
0.000000
0.000000
0.000000
1387.694092
13.213130
0.000000
0.000000
989.679626
0.000000
0.000000
0.000000
4145.649902
2925.877441
0.000000
0.000000
4614.062500
3765.295654
0.000000
0.000000
4829.190918
4572.921875
0.000000
0.000000
2835.172363
1599.614014
0.000000
0.000000
4858.116211
0.000000
0.000000
4866.373047
4214.517090
0.000000
0.000000
0.000000
0.000000
0.000000
1266.621094
0.000000
0.000000
0.000000
0.000000
0.000000
0.000000
0.000000
0.000000
0.000000
0.000000
0.000000
0.000000
0.000000
2308.786377
1852.563965
934.069336
2890.287109
4027.201904
2504.455811
3374.911865
4952.043945
4369.956055
1957.383179
558.295044
0.000000
0.000000
0.000000
2138.089355
0.000000
0.000000
0.000000
0.000000
0.000000
0.000000
0.000000
0.000000
0.000000
0.000000
0.000000
0.000000
0.000000
0.000000
0.000000
0.000000
0.000000
0.000000
0.000000
0.000000
0.000000
0.000000
0.000000
0.000000
0.000000
0.000000
0.000000
0.000000
0.000000
0.000000
0.000000
0.000000
0.000000
0.000000
0.000000
0.000000
0.000000
0.000000
0.000000
0.000000
0.000000
0.000000
0.000000
0.000000
0.000000
0.000000
0.000000
0.000000
0.000000
0.000000
0.000000
0.000000
0.000000
0.000000
0.000000
0.000000
0.000000
0.000000
0.000000
0.000000
0.000000
0.000000
0.000000
0.000000
0.000000
0.000000
0.000000
</DataArray>
</PointData>
<Cells>
<DataArray type='Int32' Name='connectivity' format='ascii'>
0
1
2
3
4
5
6
7
8
9
10
11
12
13
14
15
16
17
18
19
20
21
22
23
24
25
26
27
28
29
30
31
32
33
34
35
36
37
38
39
40
41
42
43
44
45
46
47
48
49
50
51
52
53
54
55
56
57
58
59
60
61
62
63
64
65
66
67
68
69
70
71
72
73
74
75
76
77
78
79
80
81
82
83
84
85
86
87
88
89
90
91
92
93
94
95
96
97
98
99
100
101
102
103
104
105
106
107
108
109
110
111
112
113
114
115
116
117
118
119
120
121
122
123
124
125
126
127
128
129
130
131
132
133
134
135
136
137
138
139
140
141
142
143
144
145
146
147
148
149
150
151
152
153
154
155
156
157
158
159
160
161
162
163
164
165
166
167
168
169
170
171
172
173
174
175
176
177
178
179
180
181
182
183
184
185
186
187
188
189
190
191
192
193
194
195
196
197
198
199
200
201
202
203
204
205
206
207
208
209
210
211
212
213
214
215
216
217
218
219
220
221
222
223
224
225
226
227
228
229
230
231
232
233
234
235
236
237
238
239
240
241
242
243
244
245
246
247
248
249
250
251
252
253
254
255
256
257
258
259
260
261
262
263
264
265
266
267
268
269
270
271
272
273
274
275
276
277
278
279
280
281
282
283
284
285
286
287
288
289
290
291
292
293
294
295
296
297
298
299
300
301
302
303
304
305
306
307
308
309
310
311
312
313
314
315
316
317
318
319
320
321
322
323
324
325
326
327
328