<?xml version='1.0' encoding='UTF-8'?>
<VTKFile xmlns='VTK' byte_order='LittleEndian' version='0.1' type='UnstructuredGrid'>
<UnstructuredGrid>
<Piece NumberOfCells='584' NumberOfPoints='584'>
<Points>
<DataArray NumberOfComponents='3' type='Float32' Name='Position' format='ascii'>
-0.075000 -0.075000 0.000000
-0.075000 -0.050000 0.000000
-0.075000 -0.025000 0.000000
-0.075000 0.000000 0.000000
-0.075000 0.025000 0.000000
-0.075000 0.050000 0.000000
-0.075000 0.075000 0.000000
-0.075000 0.100000 0.000000
-0.075000 0.125000 0.000000
-0.075000 0.150000 0.000000
-0.075000 0.175000 0.000000
-0.075000 0.200000 0.000000
-0.075000 0.225000 0.000000
-0.075000 0.250000 0.000000
-0.075000 0.275000 0.000000
-0.075000 0.300000 0.000000
-0.075000 0.325000 0.000000
-0.075000 0.350000 0.000000
-0.075000 0.375000 0.000000
-0.075000 0.400000 0.000000
-0.075000 0.425000 0.000000
-0.075000 0.450000 0.000000
-0.075000 0.475000 0.000000
-0.075000 0.500000 0.000000
-0.075000 0.525000 0.000000
-0.075000 0.550000 0.000000
-0.075000 0.575000 0.000000
-0.075000 0.600000 0.000000
-0.050000 -0.075000 0.000000
-0.050000 -0.050000 0.000000
-0.050000 -0.025000 0.000000
-0.050000 0.000000 0.000000
-0.050000 0.025000 0.000000
-0.050000 0.050000 0.000000
-0.050000 0.075000 0.000000
-0.050000 0.100000 0.000000
-0.050000 0.125000 0.000000
-0.050000 0.150000 0.000000
-0.050000 0.175000 0.000000
-0.050000 0.200000 0.000000
-0.050000 0.225000 0.000000
-0.050000 0.250000 0.000000
-0.050000 0.275000 0.000000
-0.050000 0.300000 0.000000
-0.050000 0.325000 0.000000
-0.050000 0.350000 0.000000
-0.050000 0.375000 0.000000
-0.050000 0.400000 0.000000
-0.050000 0.425000 0.000000
-0.050000 0.450000 0.000000
-0.050000 0.475000 0.000000
-0.050000 0.500000 0.000000
-0.050000 0.525000 0.000000
-0.050000 0.550000 0.000000
-0.050000 0.575000 0.000000
-0.050000 0.600000 0.000000
-0.025000 -0.075000 0.000000
-0.025000 -0.050000 0.000000
-0.025000 -0.025000 0.000000
-0.025000 0.000000 0.000000
-0.025000 0.025000 0.000000
-0.025000 0.050000 0.000000
-0.025000 0.075000 0.000000
-0.025000 0.100000 0.000000
-0.025000 0.125000 0.000000
-0.025000 0.150000 0.000000
-0.025000 0.175000 0.000000
-0.025000 0.200000 0.000000
-0.025000 0.225000 0.000000
-0.025000 0.250000 0.000000
-0.025000 0.275000 0.000000
-0.025000 0.300000 0.000000
-0.025000 0.325000 0.000000
-0.025000 0.350000 0.000000
-0.025000 0.375000 0.000000
-0.025000 0.400000 0.000000
-0.025000 0.425000 0.000000
-0.025000 0.450000 0.000000
-0.025000 0.475000 0.000000
-0.025000 0.500000 0.000000
-0.025000 0.525000 0.000000
-0.025000 0.550000 0.000000
-0.025000 0.575000 0.000000
-0.025000 0.600000 0.000000
0.000000 -0.075000 0.000000
0.000000 -0.050000 0.000000
0.000000 -0.025000 0.000000
0.000000 0.000000 0.000000
0.000000 0.025000 0.000000
0.000000 0.050000 0.000000
0.000000 0.075000 0.000000
0.000000 0.100000 0.000000
0.000000 0.125000 0.000000
0.000000 0.150000 0.000000
0.000000 0.175000 0.000000
0.000000 0.200000 0.000000
0.000000 0.225000 0.000000
0.000000 0.250000 0.000000
0.000000 0.275000 0.000000
0.000000 0.300000 0.000000
0.000000 0.325000 0.000000
0.000000 0.350000 0.000000
0.000000 0.375000 0.000000
0.000000 0.400000 0.000000
0.000000 0.425000 0.000000
0.000000 0.450000 0.000000
0.000000 0.475000 0.000000
0.000000 0.500000 0.000000
0.000000 0.525000 0.000000
0.000000 0.550000 0.000000
0.000000 0.575000 0.000000
0.000000 0.600000 0.000000
0.025000 -0.075000 0.000000
0.025000 -0.050000 0.000000
0.025000 -0.025000 0.000000
0.025000 0.000000 0.000000
0.028518 0.022616 0.000000
0.025906 0.042851 0.000000
0.030086 0.063682 0.000000
0.024531 0.084409 0.000000
0.029993 0.105364 0.000000
0.025234 0.126088 0.000000
0.027967 0.147938 0.000000
0.024963 0.169155 0.000000
0.027162 0.191579 0.000000
0.025929 0.213460 0.000000
0.026732 0.235956 0.000000
0.026196 0.258409 0.000000
0.026020 0.281206 0.000000
0.025974 0.304119 0.000000
0.025548 0.327272 0.000000
0.025509 0.350674 0.000000
0.024687 0.374465 0.000000
0.025889 0.398121 0.000000
0.024769 0.422943 0.000000
0.024767 0.446698 0.000000
0.050000 -0.075000 0.000000
0.050000 -0.050000 0.000000
0.050000 -0.025000 0.000000
0.050000 0.000000 0.000000
0.062884 0.021712 0.000000
0.060692 0.041865 0.000000
0.060424 0.062701 0.000000
0.060480 0.082799 0.000000
0.059361 0.104183 0.000000
0.059141 0.124764 0.000000
0.058529 0.146210 0.000000
0.058046 0.167191 0.000000
0.057169 0.188610 0.000000
0.056520 0.210137 0.000000
0.055758 0.232494 0.000000
0.055086 0.254720 0.000000
0.054605 0.277574 0.000000
0.053775 0.300528 0.000000
0.053434 0.323898 0.000000
0.052541 0.347366 0.000000
0.052389 0.371105 0.000000
0.051266 0.395003 0.000000
0.050995 0.419899 0.000000
0.050467 0.443238 0.000000
0.075000 -0.075000 0.000000
0.075000 -0.050000 0.000000
0.075000 -0.025000 0.000000
0.075000 0.000000 0.000000
0.096172 0.023242 0.000000
0.091661 0.042185 0.000000
0.091511 0.063035 0.000000
0.091067 0.083353 0.000000
0.090348 0.103937 0.000000
0.088838 0.124765 0.000000
0.088332 0.146102 0.000000
0.086613 0.167588 0.000000
0.085952 0.189458 0.000000
0.084685 0.211856 0.000000
0.083928 0.233798 0.000000
0.082754 0.256503 0.000000
0.081812 0.279221 0.000000
0.080778 0.302100 0.000000
0.079660 0.325403 0.000000
0.078808 0.348572 0.000000
0.077815 0.372653 0.000000
0.077083 0.396092 0.000000
0.076066 0.421170 0.000000
0.075130 0.444636 0.000000
0.100000 -0.075000 0.000000
0.100000 -0.050000 0.000000
0.100000 -0.025000 0.000000
0.100000 0.000000 0.000000
0.129010 0.022672 0.000000
0.126462 0.041349 0.000000
0.125442 0.062768 0.000000
0.124548 0.081634 0.000000
0.122922 0.102720 0.000000
0.121402 0.122900 0.000000
0.119769 0.143963 0.000000
0.118203 0.164873 0.000000
0.116437 0.186522 0.000000
0.114878 0.207914 0.000000
0.113058 0.230248 0.000000
0.111633 0.252452 0.000000
0.110001 0.275457 0.000000
0.108706 0.298235 0.000000
0.107180 0.321790 0.000000
0.105942 0.345351 0.000000
0.104672 0.369259 0.000000
0.103142 0.393246 0.000000
0.102252 0.417994 0.000000
0.100618 0.441730 0.000000
0.125000 -0.075000 0.000000
0.125000 -0.050000 0.000000
0.125000 -0.025000 0.000000
0.125000 0.000000 0.000000
0.165540 0.021421 0.000000
0.158462 0.040423 0.000000
0.159459 0.060159 0.000000
0.156406 0.079985 0.000000
0.154942 0.100853 0.000000
0.152601 0.121157 0.000000
0.150526 0.142745 0.000000
0.148144 0.163807 0.000000
0.145924 0.185831 0.000000
0.143643 0.207743 0.000000
0.141577 0.230120 0.000000
0.139463 0.252706 0.000000
0.137518 0.275527 0.000000
0.135425 0.298698 0.000000
0.134047 0.322042 0.000000
0.131643 0.345467 0.000000
0.130673 0.369445 0.000000
0.128392 0.393224 0.000000
0.127320 0.418193 0.000000
0.125393 0.441758 0.000000
0.150000 -0.075000 0.000000
0.150000 -0.050000 0.000000
0.150000 -0.025000 0.000000
0.150000 0.000000 0.000000
0.201599 0.022533 0.000000
0.193667 0.039309 0.000000
0.193485 0.059106 0.000000
0.190922 0.079119 0.000000
0.187882 0.097741 0.000000
0.185349 0.118609 0.000000
0.182210 0.138825 0.000000
0.179479 0.159870 0.000000
0.176537 0.181274 0.000000
0.173745 0.203023 0.000000
0.170972 0.225388 0.000000
0.168250 0.248020 0.000000
0.165680 0.270918 0.000000
0.163417 0.294142 0.000000
0.161049 0.317839 0.000000
0.158839 0.341505 0.000000
0.156970 0.365844 0.000000
0.154698 0.389734 0.000000
0.153343 0.414872 0.000000
0.150780 0.438818 0.000000
0.175000 -0.075000 0.000000
0.175000 -0.050000 0.000000
0.175000 -0.025000 0.000000
0.175000 0.000000 0.000000
0.241918 0.021730 0.000000
0.229791 0.037169 0.000000
0.230388 0.057281 0.000000
0.225329 0.074978 0.000000
0.222373 0.095495 0.000000
0.218615 0.116028 0.000000
0.214400 0.136162 0.000000
0.210965 0.157870 0.000000
0.206492 0.179160 0.000000
0.203164 0.201591 0.000000
0.199248 0.223699 0.000000
0.196153 0.246705 0.000000
0.192914 0.269832 0.000000
0.189993 0.293299 0.000000
0.187500 0.316959 0.000000
0.184706 0.340700 0.000000
0.182621 0.364948 0.000000
0.179969 0.389042 0.000000
0.178274 0.413916 0.000000
0.175587 0.437800 0.000000
0.200000 -0.075000 0.000000
0.200000 -0.050000 0.000000
0.200000 -0.025000 0.000000
0.200000 0.000000 0.000000
0.288206 0.022838 0.000000
0.266608 0.031484 0.000000
0.269965 0.052528 0.000000
0.261638 0.070407 0.000000
0.257068 0.089512 0.000000
0.252206 0.108398 0.000000
0.246964 0.129144 0.000000
0.242179 0.150297 0.000000
0.237348 0.172160 0.000000
0.232943 0.194385 0.000000
0.228410 0.217552 0.000000
0.224640 0.240708 0.000000
0.220930 0.264400 0.000000
0.217538 0.287993 0.000000
0.214537 0.312243 0.000000
0.211336 0.336236 0.000000
0.209032 0.360819 0.000000
0.205859 0.385102 0.000000
0.204210 0.410304 0.000000
0.200882 0.434728 0.000000
0.225000 -0.075000 0.000000
0.225000 -0.050000 0.000000
0.225000 -0.025000 0.000000
0.225000 0.000000 0.000000
0.320203 0.020843 0.000000
0.324804 0.043383 0.000000
0.295472 0.046392 0.000000
0.305019 0.066362 0.000000
0.292102 0.084301 0.000000
0.288571 0.104258 0.000000
0.279434 0.125499 0.000000
0.273952 0.146565 0.000000
0.266912 0.168914 0.000000
0.261545 0.191613 0.000000
0.256212 0.214820 0.000000
0.251550 0.238222 0.000000
0.247445 0.262084 0.000000
0.243485 0.286121 0.000000
0.240300 0.310325 0.000000
0.236850 0.334713 0.000000
0.234313 0.359177 0.000000
0.231151 0.383932 0.000000
0.229285 0.408816 0.000000
0.225770 0.432903 0.000000
0.250000 -0.075000 0.000000
0.250000 -0.050000 0.000000
0.250000 -0.025000 0.000000
0.250000 0.000000 0.000000
0.400800 0.023250 0.000000
0.366353 0.020631 0.000000
0.354694 0.035612 0.000000
0.346596 0.049277 0.000000
0.333893 0.067789 0.000000
0.322351 0.088074 0.000000
0.313134 0.111865 0.000000
0.304422 0.134634 0.000000
0.296812 0.158693 0.000000
0.290293 0.182567 0.000000
0.284287 0.206899 0.000000
0.279056 0.231301 0.000000
0.274549 0.255841 0.000000
0.270153 0.280576 0.000000
0.266661 0.305264 0.000000
0.262842 0.330133 0.000000
0.260058 0.354916 0.000000
0.256588 0.379907 0.000000
0.254119 0.404772 0.000000
0.250761 0.429609 0.000000
0.275000 -0.075000 0.000000
0.275000 -0.050000 0.000000
0.275000 -0.025000 0.000000
0.275000 0.000000 0.000000
0.300000 -0.075000 0.000000
0.300000 -0.050000 0.000000
0.300000 -0.025000 0.000000
0.300000 0.000000 0.000000
0.325000 -0.075000 0.000000
0.325000 -0.050000 0.000000
0.325000 -0.025000 0.000000
0.325000 0.000000 0.000000
0.350000 -0.075000 0.000000
0.350000 -0.050000 0.000000
0.350000 -0.025000 0.000000
0.350000 0.000000 0.000000
0.375000 -0.075000 0.000000
0.375000 -0.050000 0.000000
0.375000 -0.025000 0.000000
0.375000 0.000000 0.000000
0.400000 -0.075000 0.000000
0.400000 -0.050000 0.000000
0.400000 -0.025000 0.000000
0.400000 0.000000 0.000000
0.425000 -0.075000 0.000000
0.425000 -0.050000 0.000000
0.425000 -0.025000 0.000000
0.425000 0.000000 0.000000
0.450000 -0.075000 0.000000
0.450000 -0.050000 0.000000
0.450000 -0.025000 0.000000
0.450000 0.000000 0.000000
0.475000 -0.075000 0.000000
0.475000 -0.050000 0.000000
0.475000 -0.025000 0.000000
0.475000 0.000000 0.000000
0.500000 -0.075000 0.000000
0.500000 -0.050000 0.000000
0.500000 -0.025000 0.000000
0.500000 0.000000 0.000000
0.525000 -0.075000 0.000000
0.525000 -0.050000 0.000000
0.525000 -0.025000 0.000000
0.525000 0.000000 0.000000
0.550000 -0.075000 0.000000
0.550000 -0.050000 0.000000
0.550000 -0.025000 0.000000
0.550000 0.000000 0.000000
0.575000 -0.075000 0.000000
0.575000 -0.050000 0.000000
0.575000 -0.025000 0.000000
0.575000 0.000000 0.000000
0.600000 -0.075000 0.000000
0.600000 -0.050000 0.000000
0.600000 -0.025000 0.000000
0.600000 0.000000 0.000000
0.625000 -0.075000 0.000000
0.625000 -0.050000 0.000000
0.625000 -0.025000 0.000000
0.625000 0.000000 0.000000
0.650000 -0.075000 0.000000
0.650000 -0.050000 0.000000
0.650000 -0.025000 0.000000
0.650000 0.000000 0.000000
0.675000 -0.075000 0.000000
0.675000 -0.050000 0.000000
0.675000 -0.025000 0.000000
0.675000 0.000000 0.000000
0.700000 -0.075000 0.000000
0.700000 -0.050000 0.000000
0.700000 -0.025000 0.000000
0.700000 0.000000 0.000000
0.725000 -0.075000 0.000000
0.725000 -0.050000 0.000000
0.725000 -0.025000 0.000000
0.725000 0.000000 0.000000
0.750000 -0.075000 0.000000
0.750000 -0.050000 0.000000
0.750000 -0.025000 0.000000
0.750000 0.000000 0.000000
0.775000 -0.075000 0.000000
0.775000 -0.050000 0.000000
0.775000 -0.025000 0.000000
0.775000 0.000000 0.000000
0.800000 -0.075000 0.000000
0.800000 -0.050000 0.000000
0.800000 -0.025000 0.000000
0.800000 0.000000 0.000000
0.825000 -0.075000 0.000000
0.825000 -0.050000 0.000000
0.825000 -0.025000 0.000000
0.825000 0.000000 0.000000
0.850000 -0.075000 0.000000
0.850000 -0.050000 0.000000
0.850000 -0.025000 0.000000
0.850000 0.000000 0.000000
0.875000 -0.075000 0.000000
0.875000 -0.050000 0.000000
0.875000 -0.025000 0.000000
0.875000 0.000000 0.000000
0.900000 -0.075000 0.000000
0.900000 -0.050000 0.000000
0.900000 -0.025000 0.000000
0.900000 0.000000 0.000000
0.925000 -0.075000 0.000000
0.925000 -0.050000 0.000000
0.925000 -0.025000 0.000000
0.925000 0.000000 0.000000
0.950000 -0.075000 0.000000
0.950000 -0.050000 0.000000
0.950000 -0.025000 0.000000
0.950000 0.000000 0.000000
0.975000 -0.075000 0.000000
0.975000 -0.050000 0.000000
0.975000 -0.025000 0.000000
0.975000 0.000000 0.000000
1.000000 -0.075000 0.000000
1.000000 -0.050000 0.000000
1.000000 -0.025000 0.000000
1.000000 0.000000 0.000000
1.025000 -0.075000 0.000000
1.025000 -0.050000 0.000000
1.025000 -0.025000 0.000000
1.025000 0.000000 0.000000
1.025000 0.025000 0.000000
1.025000 0.050000 0.000000
1.025000 0.075000 0.000000
1.025000 0.100000 0.000000
1.025000 0.125000 0.000000
1.025000 0.150000 0.000000
1.025000 0.175000 0.000000
1.025000 0.200000 0.000000
1.025000 0.225000 0.000000
1.025000 0.250000 0.000000
1.025000 0.275000 0.000000
1.025000 0.300000 0.000000
1.025000 0.325000 0.000000
1.025000 0.350000 0.000000
1.025000 0.375000 0.000000
1.025000 0.400000 0.000000
1.025000 0.425000 0.000000
1.025000 0.450000 0.000000
1.025000 0.475000 0.000000
1.025000 0.500000 0.000000
1.025000 0.525000 0.000000
1.025000 0.550000 0.000000
1.025000 0.575000 0.000000
1.025000 0.600000 0.000000
1.050000 -0.075000 0.000000
1.050000 -0.050000 0.000000
1.050000 -0.025000 0.000000
1.050000 0.000000 0.000000
1.050000 0.025000 0.000000
1.050000 0.050000 0.000000
1.050000 0.075000 0.000000
1.050000 0.100000 0.000000
1.050000 0.125000 0.000000
1.050000 0.150000 0.000000
1.050000 0.175000 0.000000
1.050000 0.200000 0.000000
1.050000 0.225000 0.000000
1.050000 0.250000 0.000000
1.050000 0.275000 0.000000
1.050000 0.300000 0.000000
1.050000 0.325000 0.000000
1.050000 0.350000 0.000000
1.050000 0.375000 0.000000
1.050000 0.400000 0.000000
1.050000 0.425000 0.000000
1.050000 0.450000 0.000000
1.050000 0.475000 0.000000
1.050000 0.500000 0.000000
1.050000 0.525000 0.000000
1.050000 0.550000 0.000000
1.050000 0.575000 0.000000
1.050000 0.600000 0.000000
1.075000 -0.075000 0.000000
1.075000 -0.050000 0.000000
1.075000 -0.025000 0.000000
1.075000 0.000000 0.000000
1.075000 0.025000 0.000000
1.075000 0.050000 0.000000
1.075000 0.075000 0.000000
1.075000 0.100000 0.000000
1.075000 0.125000 0.000000
1.075000 0.150000 0.000000
1.075000 0.175000 0.000000
1.075000 0.200000 0.000000
1.075000 0.225000 0.000000
1.075000 0.250000 0.000000
1.075000 0.275000 0.000000
1.075000 0.300000 0.000000
1.075000 0.325000 0.000000
1.075000 0.350000 0.000000
1.075000 0.375000 0.000000
1.075000 0.400000 0.000000
1.075000 0.425000 0.000000
1.075000 0.450000 0.000000
1.075000 0.475000 0.000000
1.075000 0.500000 0.000000
1.075000 0.525000 0.000000
1.075000 0.550000 0.000000
1.075000 0.575000 0.000000
1.075000 0.600000 0.000000
1.100000 -0.075000 0.000000
1.100000 -0.050000 0.000000
1.100000 -0.025000 0.000000
1.100000 0.000000 0.000000
1.100000 0.025000 0.000000
1.100000 0.050000 0.000000
1.100000 0.075000 0.000000
1.100000 0.100000 0.000000
1.100000 0.125000 0.000000
1.100000 0.150000 0.000000
1.100000 0.175000 0.000000
1.100000 0.200000 0.000000
1.100000 0.225000 0.000000
1.100000 0.250000 0.000000
1.100000 0.275000 0.000000
1.100000 0.300000 0.000000
1.100000 0.325000 0.000000
1.100000 0.350000 0.000000
1.100000 0.375000 0.000000
1.100000 0.400000 0.000000
1.100000 0.425000 0.000000
1.100000 0.450000 0.000000
1.100000 0.475000 0.000000
1.100000 0.500000 0.000000
1.100000 0.525000 0.000000
1.100000 0.550000 0.000000
1.100000 0.575000 0.000000
1.100000 0.600000 0.000000
</DataArray>
</Points>
<PointData>
<DataArray NumberOfComponents='1' type='Int32' Name='ParticleType' format='ascii'>
3
3
3
3
3
3
3
3
3
3
3
3
3
3
3
3
3
3
3
3
3
3
3
3
3
3
2
2
3
3
3
3
3
3
3
3
3
3
3
3
3
3
3
3
3
3
3
3
3
3
3
3
3
3
2
2
3
3
2
2
2
2
2
2
2
2
2
2
2
2
2
2
2
2
2
2
2
2
2
2
2
2
2
2
3
3
2
2
2
2
2
2
2
2
2
2
2
2
2
2
2
2
2
2
2
2
2
2
2
2
2
2
3
3
2
2
0
0
0
0
0
0
0
0
0
0
0
0
0
0
0
0
0
0
0
0
3
3
2
2
0
0
0
0
0
0
0
0
0
0
0
0
0
0
0
0
0
0
0
0
3
3
2
2
0
0
0
0
0
0
0
0
0
0
0
0
0
0
0
0
0
0
0
0
3
3
2
2
0
0
0
0
0
0
0
0
0
0
0
0
0
0
0
0
0
0
0
0
3
3
2
2
0
0
0
0
0
0
0
0
0
0
0
0
0
0
0
0
0
0
0
0
3
3
2
2
0
0
0
0
0
0
0
0
0
0
0
0
0
0
0
0
0
0
0
0
3
3
2
2
0
0
0
0
0
0
0
0
0
0
0
0
0
0
0
0
0
0
0
0
3
3
2
2
0
0
0
0
0
0
0
0
0
0
0
0
0
0
0
0
0
0
0
0
3
3
2
2
0
0
0
0
0
0
0
0
0
0
0
0
0
0
0
0
0
0
0
0
3
3
2
2
0
0
0
0
0
0
0
0
0
0
0
0
0
0
0
0
0
0
0
0
3
3
2
2
3
3
2
2
3
3
2
2
3
3
2
2
3
3
2
2
3
3
2
2
3
3
2
2
3
3
2
2
3
3
2
2
3
3
2
2
3
3
2
2
3
3
2
2
3
3
2
2
3
3
2
2
3
3
2
2
3
3
2
2
3
3
2
2
3
3
2
2
3
3
2
2
3
3
2
2
3
3
2
2
3
3
2
2
3
3
2
2
3
3
2
2
3
3
2
2
3
3
2
2
3
3
2
2
3
3
2
2
3
3
2
2
3
3
2
2
3
3
2
2
2
2
2
2
2
2
2
2
2
2
2
2
2
2
2
2
2
2
2
2
2
2
2
2
3
3
2
2
2
2
2
2
2
2
2
2
2
2
2
2
2
2
2
2
2
2
2
2
2
2
2
2
3
3
3
3
3
3
3
3
3
3
3
3
3
3
3
3
3
3
3
3
3
3
3
3
3
3
2
2
3
3
3
3
3
3
3
3
3
3
3
3
3
3
3
3
3
3
3
3
3
3
3
3
3
3
2
2
</DataArray>
<DataArray NumberOfComponents='1' type='Float32' Name='Velocity' format='ascii'>
0.000000
0.000000
0.000000
0.000000
0.000000
0.000000
0.000000
0.000000
0.000000
0.000000
0.000000
0.000000
0.000000
0.000000
0.000000
0.000000
0.000000
0.000000
0.000000
0.000000
0.000000
0.000000
0.000000
0.000000
0.000000
0.000000
0.000000
0.000000
0.000000
0.000000
0.000000
0.000000
0.000000
0.000000
0.000000
0.000000
0.000000
0.000000
0.000000
0.000000
0.000000
0.000000
0.000000
0.000000
0.000000
0.000000
0.000000
0.000000
0.000000
0.000000
0.000000
0.000000
0.000000
0.000000
0.000000
0.000000
0.000000
0.000000
0.000000
0.000000
0.000000
0.000000
0.000000
0.000000
0.000000
0.000000
0.000000
0.000000
0.000000
0.000000
0.000000
0.000000
0.000000
0.000000
0.000000
0.000000
0.000000
0.000000
0.000000
0.000000
0.000000
0.000000
0.000000
0.000000
0.000000
0.000000
0.000000
0.000000
0.000000
0.000000
0.000000
0.000000
0.000000
0.000000
0.000000
0.000000
0.000000
0.000000
0.000000
0.000000
0.000000
0.000000
0.000000
0.000000
0.000000
0.000000
0.000000
0.000000
0.000000
0.000000
0.000000
0.000000
0.000000
0.000000
0.000000
0.000000
0.114363
0.079335
0.204866
0.192778
0.332162
0.332949
0.333734
0.396343
0.411375
0.463870
0.532692
0.538826
0.563720
0.595317
0.621383
0.635546
0.668908
0.653892
0.721859
0.722836
0.000000
0.000000
0.000000
0.000000
0.221270
0.173421
0.253103
0.274307
0.298256
0.351251
0.413648
0.459063
0.530129
0.522975
0.566841
0.618513
0.648090
0.691165
0.765529
0.752889
0.781504
0.780629
0.788179
0.805698
0.000000
0.000000
0.000000
0.000000
0.371600
0.318511
0.334424
0.373152
0.405988
0.415288
0.460058
0.476434
0.501047
0.551398
0.578862
0.620451
0.639511
0.657881
0.679967
0.678388
0.724528
0.728116
0.755337
0.760539
0.000000
0.000000
0.000000
0.000000
0.605449
0.463823
0.470896
0.497566
0.484339
0.525596
0.532326
0.563689
0.612675
0.650155
0.673483
0.671256
0.740406
0.743705
0.781111
0.808124
0.816364
0.821475
0.841727
0.833722
0.000000
0.000000
0.000000
0.000000
0.645075
0.473594
0.678899
0.584709
0.650105
0.631162
0.673847
0.673649
0.665176
0.680092
0.704787
0.745014
0.737751
0.769607
0.775801
0.770790
0.799602
0.801616
0.822751
0.822938
0.000000
0.000000
0.000000
0.000000
1.038097
0.726832
0.764228
0.772562
0.779485
0.701189
0.759536
0.753913
0.804576
0.818408
0.826896
0.851207
0.849605
0.850841
0.892610
0.882988
0.906114
0.902753
0.921236
0.893496
0.000000
0.000000
0.000000
0.000000
1.219455
0.809945
1.017844
0.936355
0.889649
0.966545
0.938222
0.916424
0.898966
0.895516
0.913603
0.874006
0.929405
0.904281
0.912540
0.905813
0.917045
0.908407
0.906566
0.932468
0.000000
0.000000
0.000000
0.000000
1.752751
0.785555
1.336213
1.035612
1.125402
1.079783
1.041777
1.062420
1.115903
1.059708
1.061613
1.070882
1.026514
1.047473
1.023185
1.019354
1.027280
1.029483
1.027163
1.000656
0.000000
0.000000
0.000000
0.000000
1.486106
1.603007
1.007312
1.457941
1.336092
1.403764
1.309486
1.300932
1.197138
1.194839
1.146014
1.124180
1.117317
1.087101
1.089201
1.070947
1.070020
1.045097
1.032539
1.056749
0.000000
0.000000
0.000000
0.000000
2.235487
1.971118
1.558560
1.841057
1.756434
1.645534
1.608196
1.512814
1.457140
1.386803
1.341919
1.294219
1.263107
1.233426
1.210113
1.193795
1.178351
1.163105
1.149715
1.152169
0.000000
0.000000
0.000000
0.000000
0.000000
0.000000
0.000000
0.000000
0.000000
0.000000
0.000000
0.000000
0.000000
0.000000
0.000000
0.000000
0.000000
0.000000
0.000000
0.000000
0.000000
0.000000
0.000000
0.000000
0.000000
0.000000
0.000000
0.000000
0.000000
0.000000
0.000000
0.000000
0.000000
0.000000
0.000000
0.000000
0.000000
0.000000
0.000000
0.000000
0.000000
0.000000
0.000000
0.000000
0.000000
0.000000
0.000000
0.000000
0.000000
0.000000
0.000000
0.000000
0.000000
0.000000
0.000000
0.000000
0.000000
0.000000
0.000000
0.000000
0.000000
0.000000
0.000000
0.000000
0.000000
0.000000
0.000000
0.000000
0.000000
0.000000
0.000000
0.000000
0.000000
0.000000
0.000000
0.000000
0.000000
0.000000
0.000000
0.000000
0.000000
0.000000
0.000000
0.000000
0.000000
0.000000
0.000000
0.000000
0.000000
0.000000
0.000000
0.000000
0.000000
0.000000
0.000000
0.000000
0.000000
0.000000
0.000000
0.000000
0.000000
0.000000
0.000000
0.000000
0.000000
0.000000
0.000000
0.000000
0.000000
0.000000
0.000000
0.000000
0.000000
0.000000
0.000000
0.000000
0.000000
0.000000
0.000000
0.000000
0.000000
0.000000
0.000000
0.000000
0.000000
0.000000
0.000000
0.000000
0.000000
0.000000
0.000000
0.000000
0.000000
0.000000
0.000000
0.000000
0.000000
0.000000
0.000000
0.000000
0.000000
0.000000
0.000000
0.000000
0.000000
0.000000
0.000000
0.000000
0.000000
0.000000
0.000000
0.000000
0.000000
0.000000
0.000000
0.000000
0.000000
0.000000
0.000000
0.000000
0.000000
0.000000
0.000000
0.000000
0.000000
0.000000
0.000000
0.000000
0.000000
0.000000
0.000000
0.000000
0.000000
0.000000
0.000000
0.000000
0.000000
0.000000
0.000000
0.000000
0.000000
0.000000
0.000000
0.000000
0.000000
0.000000
0.000000
0.000000
0.000000
0.000000
0.000000
0.000000
0.000000
0.000000
0.000000
0.000000
0.000000
0.000000
0.000000
0.000000
0.000000
0.000000
0.000000
0.000000
0.000000
0.000000
0.000000
0.000000
0.000000
0.000000
0.000000
0.000000
0.000000
0.000000
0.000000
0.000000
0.000000
0.000000
0.000000
0.000000
0.000000
0.000000
0.000000
0.000000
0.000000
0.000000
0.000000
0.000000
0.000000
0.000000
0.000000
0.000000
</DataArray>
<DataArray NumberOfComponents='1' type='Float32' Name='pressure' format='ascii'>
0.000000
0.000000
0.000000
0.000000
0.000000
0.000000
0.000000
0.000000
0.000000
0.000000
0.000000
0.000000
0.000000
0.000000
0.000000
0.000000
0.000000
0.000000
0.000000
0.000000
0.000000
0.000000
0.000000
0.000000
0.000000
0.000000
0.000000
0.000000
0.000000
0.000000
0.000000
0.000000
0.000000
0.000000
0.000000
0.000000
0.000000
0.000000
0.000000
0.000000
0.000000
0.000000
0.000000
0.000000
0.000000
0.000000
0.000000
0.000000
0.000000
0.000000
0.000000
0.000000
0.000000
0.000000
0.000000
0.000000
0.000000
0.000000
3888.015625
3513.492188
2306.952637
2310.170166
2422.012939
1770.718628
2072.597168
1196.693237
1576.858765
532.247742
203.433578
25.115362
28.347036
45.703781
190.072037
182.670044
326.945312
0.000000
0.000000
0.000000
0.000000
0.000000
0.000000
0.000000
0.000000
0.000000
0.000000
0.000000
4240.813477
3943.854980
2733.345215
2988.342773
3022.492188
2325.790283
2652.687500
2125.080566
2664.091064
1847.219849
1311.814697
889.692871
705.475708
522.288513
431.654022
342.662262
457.303406
0.000000
207.560074
0.000000
0.000000
0.000000
0.000000
0.000000
0.000000
0.000000
0.000000
0.000000
5394.799805
5196.740234
3562.088379
4357.940918
2955.649902
3911.040039
2858.385498
3364.409180
2406.770264
2782.641602
1867.211548
2165.946289
1830.638672
1782.593994
1524.800049
1395.882080
1339.847656
1147.495239
955.209351
449.993347
81.352501
0.000000
0.000000
0.000000
5460.795410
3842.800293
3878.357178
3608.936279
3504.279785
3255.895508
2927.114258
2761.072266
2478.937988
2344.109131
2228.229004
1714.654907
1490.352173
1247.036499
893.313904
744.079407
709.473877
419.221771
188.184433
203.942734
245.104111
0.000000
0.000000
0.000000
5578.588379
4807.657715
3254.906250
4087.544678
3074.654297
3317.456299
2994.397461
2758.944580
2427.206055
2428.308594
1826.550659
1910.028564
1733.893066
1419.071777
1475.375854
1251.919189
1142.982422
779.570007
638.843384
282.425629
123.280807
0.000000
0.000000
0.000000
5535.520996
5049.728516
3678.606689
3544.071045
3024.851318
3201.804199
2595.694092
2690.599121
2369.573242
2089.827637
1947.096680
1811.162720
1536.066772
1253.740967
1112.040283
902.785278
495.303131
497.435455
348.549408
261.225769
331.556366
0.000000
0.000000
0.000000
5580.465332
4334.722168
3842.021240
2988.114014
3399.844482
2523.591064
2640.386719
2308.464844
2187.259766
2079.041748
1752.514648
1635.693237
1370.369141
1295.362915
1096.657715
921.907043
877.132446
777.395325
658.658752
255.829208
260.819122
0.000000
0.000000
0.000000
5143.284180
3557.973877
2354.404541
3453.267090
1856.502563
2451.219971
2806.783203
1574.257324
1919.121460
1582.790161
1577.700684
1316.885620
1152.647583
1138.760742
1101.207642
791.930054
695.419861
388.958710
409.423096
209.725861
275.870483
0.000000
0.000000
0.000000
5267.344727
4654.738770
2093.506592
1806.502197
1901.947754
1648.450317
1073.532837
1779.831299
1740.779785
1420.817993
1332.797974
1301.546509
1253.979614
806.787109
721.437317
656.272217
639.848389
433.070770
452.479309
279.539490
152.658661
0.000000
0.000000
0.000000
4576.760254
3654.518066
2053.291504
1114.152832
1652.003418
1150.894653
1942.339966
1689.899780
810.213440
990.531921
1058.285034
715.776794
584.554382
698.832947
695.096313
556.474609
549.305908
424.920105
341.940826
39.931324
175.085266
0.000000
0.000000
0.000000
3148.141846
1003.893127
0.000000
2333.039062
354.396851
1385.883911
561.182739
454.077972
610.181274
860.112671
584.837585
725.898010
610.463928
552.582275
368.862183
374.386292
249.559555
210.992752
125.645836
303.323242
86.255447
0.000000
0.000000
0.000000
3513.771484
2674.451416
0.000000
0.000000
129.516144
0.000000
0.000000
0.000000
0.000000
0.000000
0.000000
0.000000
0.000000
0.000000
0.000000
0.000000
0.000000
0.000000
0.000000
0.000000
0.000000
0.000000
0.000000
0.000000
2626.805908
959.643677
0.000000
0.000000
3437.277588
2508.876953
0.000000
0.000000
3527.105957
1827.076660
0.000000
0.000000
2194.296387
0.000000
0.000000
0.000000
2409.403320
989.301331
0.000000
0.000000
1099.198608
0.000000
0.000000
0.000000
0.000000
0.000000
0.000000
0.000000
0.000000
0.000000
0.000000
0.000000
0.000000
0.000000
0.000000
0.000000
0.000000
0.000000
0.000000
0.000000
0.000000
0.000000
0.000000
0.000000
0.000000
0.000000
0.000000
0.000000
0.000000
0.000000
0.000000
0.000000
0.000000
0.000000
0.000000
0.000000
0.000000
0.000000
0.000000
0.000000
0.000000
0.000000
0.000000
0.000000
0.000000
0.000000
0.000000
0.000000
0.000000
0.000000
0.000000
0.000000
0.000000
0.000000
0.000000
0.000000
0.000000
0.000000
0.000000
0.000000
0.000000
0.000000
0.000000
0.000000
0.000000
0.000000
0.000000
0.000000
0.000000
0.000000
0.000000
0.000000
0.000000
0.000000
0.000000
0.000000
0.000000
0.000000
0.000000
0.000000
0.000000
0.000000
0.000000
0.000000
0.000000
0.000000
0.000000
0.000000
0.000000
0.000000
0.000000
0.000000
0.000000
0.000000
0.000000
0.000000
0.000000
0.000000
0.000000
0.000000
0.000000
0.000000
0.000000
0.000000
0.000000
0.000000
0.000000
0.000000
0.000000
0.000000
0.000000
0.000000
0.000000
0.000000
0.000000
0.000000
0.000000
0.000000
0.000000
0.000000
0.000000
0.000000
0.000000
0.000000
0.000000
0.000000
0.000000
0.000000
0.000000
0.000000
0.000000
0.000000
0.000000
0.000000
0.000000
0.000000
0.000000
0.000000
0.000000
0.000000
0.000000
0.000000
0.000000
0.000000
0.000000
0.000000
0.000000
0.000000
0.000000
0.000000
0.000000
0.000000
0.000000
0.000000
0.000000
0.000000
0.000000
0.000000
0.000000
0.000000
0.000000
0.000000
0.000000
0.000000
0.000000
0.000000
0.000000
0.000000
0.000000
0.000000
0.000000
0.000000
0.000000
0.000000
0.000000
0.000000
0.000000
0.000000
0.000000
0.000000
0.000000
0.000000
0.000000
0.000000
0.000000
0.000000
0.000000
0.000000
0.000000
0.000000
0.000000
0.000000
0.000000
0.000000
0.000000
0.000000
0.000000
0.000000
0.000000
0.000000
0.000000
0.000000
0.000000
0.000000
0.000000
0.000000
0.000000
0.000000
0.000000
0.000000
</DataArray>
</PointData>
<Cells>
<DataArray type='Int32' Name='connectivity' format='ascii'>
0
1
2
3
4
5
6
7
8
9
10
11
12
13
14
15
16
17
18
19
20
21
22
23
24
25
26
27
28
29
30
31
32
33
34
35
36
37
38
39
40
41
42
43
44
45
46
47
48
49
50
51
52
53
54
55
56
57
58
59
60
61
62
63
64
65
66
67
68
69
70
71
72
73
74
75
76
77
78
79
80
81
82
83
84
85
86
87
88
89
90
91
92
93
94
95
96
97
98
99
100
101
102
103
104
105
106
107
108
109
110
111
112
113
114
115
116
117
118
119
120
121
122
123
124
125
126
127
128
129
130
131
132
133
134
135
136
137
138
139
140
141
142
143
144
145
146
147
148
149
150
151
152
153
154
155
156
157
158
159
160
161
162
163
164
165
166
167
168
169
170
171
172
173
174
175
176
177
178
179
180
181
182
183
184
185
186
187
188
189
190
191
192
193
194
195
196
197
198
199
200
201
202
203
204
205
206
207
208
209
210
211
212
213
214
215
216
217
218
219
220
221
222
223
224
225
226
227
228
229
230
231
232
233
234
235
236
237
238
239
240
241
242
243
244
245
246
247
248
249
250
251
252
253
254
255
256
257
258
259
260
261
262
263
264
265
266
267
268
269
270
271
272
273
274
275
276
277
278
279
280
281
282