<?xml version='1.0' encoding='UTF-8'?>
<VTKFile xmlns='VTK' byte_order='LittleEndian' version='0.1' type='UnstructuredGrid'>
<UnstructuredGrid>
<Piece NumberOfCells='584' NumberOfPoints='584'>
<Points>
<DataArray NumberOfComponents='3' type='Float32' Name='Position' format='ascii'>
-0.075000 -0.075000 0.000000
-0.075000 -0.050000 0.000000
-0.075000 -0.025000 0.000000
-0.075000 0.000000 0.000000
-0.075000 0.025000 0.000000
-0.075000 0.050000 0.000000
-0.075000 0.075000 0.000000
-0.075000 0.100000 0.000000
-0.075000 0.125000 0.000000
-0.075000 0.150000 0.000000
-0.075000 0.175000 0.000000
-0.075000 0.200000 0.000000
-0.075000 0.225000 0.000000
-0.075000 0.250000 0.000000
-0.075000 0.275000 0.000000
-0.075000 0.300000 0.000000
-0.075000 0.325000 0.000000
-0.075000 0.350000 0.000000
-0.075000 0.375000 0.000000
-0.075000 0.400000 0.000000
-0.075000 0.425000 0.000000
-0.075000 0.450000 0.000000
-0.075000 0.475000 0.000000
-0.075000 0.500000 0.000000
-0.075000 0.525000 0.000000
-0.075000 0.550000 0.000000
-0.075000 0.575000 0.000000
-0.075000 0.600000 0.000000
-0.050000 -0.075000 0.000000
-0.050000 -0.050000 0.000000
-0.050000 -0.025000 0.000000
-0.050000 0.000000 0.000000
-0.050000 0.025000 0.000000
-0.050000 0.050000 0.000000
-0.050000 0.075000 0.000000
-0.050000 0.100000 0.000000
-0.050000 0.125000 0.000000
-0.050000 0.150000 0.000000
-0.050000 0.175000 0.000000
-0.050000 0.200000 0.000000
-0.050000 0.225000 0.000000
-0.050000 0.250000 0.000000
-0.050000 0.275000 0.000000
-0.050000 0.300000 0.000000
-0.050000 0.325000 0.000000
-0.050000 0.350000 0.000000
-0.050000 0.375000 0.000000
-0.050000 0.400000 0.000000
-0.050000 0.425000 0.000000
-0.050000 0.450000 0.000000
-0.050000 0.475000 0.000000
-0.050000 0.500000 0.000000
-0.050000 0.525000 0.000000
-0.050000 0.550000 0.000000
-0.050000 0.575000 0.000000
-0.050000 0.600000 0.000000
-0.025000 -0.075000 0.000000
-0.025000 -0.050000 0.000000
-0.025000 -0.025000 0.000000
-0.025000 0.000000 0.000000
-0.025000 0.025000 0.000000
-0.025000 0.050000 0.000000
-0.025000 0.075000 0.000000
-0.025000 0.100000 0.000000
-0.025000 0.125000 0.000000
-0.025000 0.150000 0.000000
-0.025000 0.175000 0.000000
-0.025000 0.200000 0.000000
-0.025000 0.225000 0.000000
-0.025000 0.250000 0.000000
-0.025000 0.275000 0.000000
-0.025000 0.300000 0.000000
-0.025000 0.325000 0.000000
-0.025000 0.350000 0.000000
-0.025000 0.375000 0.000000
-0.025000 0.400000 0.000000
-0.025000 0.425000 0.000000
-0.025000 0.450000 0.000000
-0.025000 0.475000 0.000000
-0.025000 0.500000 0.000000
-0.025000 0.525000 0.000000
-0.025000 0.550000 0.000000
-0.025000 0.575000 0.000000
-0.025000 0.600000 0.000000
0.000000 -0.075000 0.000000
0.000000 -0.050000 0.000000
0.000000 -0.025000 0.000000
0.000000 0.000000 0.000000
0.000000 0.025000 0.000000
0.000000 0.050000 0.000000
0.000000 0.075000 0.000000
0.000000 0.100000 0.000000
0.000000 0.125000 0.000000
0.000000 0.150000 0.000000
0.000000 0.175000 0.000000
0.000000 0.200000 0.000000
0.000000 0.225000 0.000000
0.000000 0.250000 0.000000
0.000000 0.275000 0.000000
0.000000 0.300000 0.000000
0.000000 0.325000 0.000000
0.000000 0.350000 0.000000
0.000000 0.375000 0.000000
0.000000 0.400000 0.000000
0.000000 0.425000 0.000000
0.000000 0.450000 0.000000
0.000000 0.475000 0.000000
0.000000 0.500000 0.000000
0.000000 0.525000 0.000000
0.000000 0.550000 0.000000
0.000000 0.575000 0.000000
0.000000 0.600000 0.000000
0.025000 -0.075000 0.000000
0.025000 -0.050000 0.000000
0.025000 -0.025000 0.000000
0.025000 0.000000 0.000000
0.301134 0.080092 0.000000
0.156802 0.119306 0.000000
0.280102 0.051985 0.000000
0.260945 0.025990 0.000000
0.302140 0.051106 0.000000
0.207351 0.050273 0.000000
0.381114 0.025872 0.000000
0.310642 0.096128 0.000000
0.240902 0.120786 0.000000
0.163264 0.144527 0.000000
0.284080 0.024426 0.000000
0.189390 0.068475 0.000000
0.235210 0.023674 0.000000
0.213224 0.028234 0.000000
0.164714 0.080462 0.000000
0.107791 0.042673 0.000000
0.022242 0.138617 0.000000
0.134971 0.020894 0.000000
0.061637 0.081644 0.000000
0.265216 0.075360 0.000000
0.050000 -0.075000 0.000000
0.050000 -0.050000 0.000000
0.050000 -0.025000 0.000000
0.050000 0.000000 0.000000
0.105598 0.169516 0.000000
0.153898 0.058660 0.000000
0.086680 0.101578 0.000000
0.055378 0.023114 0.000000
0.024366 0.075199 0.000000
0.477261 0.064669 0.000000
0.258712 0.124891 0.000000
0.619219 0.020336 0.000000
0.116475 0.100469 0.000000
0.287215 0.159746 0.000000
0.187687 0.023984 0.000000
0.273835 0.148647 0.000000
0.038206 0.162861 0.000000
0.345879 0.174946 0.000000
0.231612 0.052285 0.000000
0.051626 0.042325 0.000000
0.278401 0.093839 0.000000
0.341907 0.085359 0.000000
0.090872 0.125554 0.000000
0.132813 0.041421 0.000000
0.075000 -0.075000 0.000000
0.075000 -0.050000 0.000000
0.075000 -0.025000 0.000000
0.075000 0.000000 0.000000
0.213893 0.079126 0.000000
0.186906 0.124143 0.000000
0.452000 0.132980 0.000000
0.403307 0.024923 0.000000
0.466022 0.146319 0.000000
0.558046 0.129133 0.000000
0.568687 0.109534 0.000000
0.086239 0.062601 0.000000
0.372645 0.072420 0.000000
0.603102 0.047959 0.000000
0.486139 0.026123 0.000000
0.120057 0.062893 0.000000
0.281377 0.117468 0.000000
0.263342 0.174703 0.000000
0.345455 0.064211 0.000000
0.083064 0.041502 0.000000
0.181857 0.091733 0.000000
0.050577 0.064563 0.000000
0.203052 0.100533 0.000000
0.257213 0.052046 0.000000
0.100000 -0.075000 0.000000
0.100000 -0.050000 0.000000
0.100000 -0.025000 0.000000
0.100000 0.000000 0.000000
0.531834 0.031316 0.000000
0.384968 0.202610 0.000000
0.503571 0.137875 0.000000
0.785175 0.022912 0.000000
0.320849 0.065757 0.000000
0.722090 0.025675 0.000000
0.560064 0.065299 0.000000
0.329572 0.037048 0.000000
0.678098 0.034357 0.000000
0.697008 0.062913 0.000000
0.509757 0.024026 0.000000
0.359504 0.095740 0.000000
0.517908 0.125409 0.000000
0.658550 0.071322 0.000000
0.065995 0.123903 0.000000
0.309372 0.024708 0.000000
0.535787 0.072961 0.000000
0.359747 0.041226 0.000000
0.385452 0.097139 0.000000
0.137321 0.128983 0.000000
0.125000 -0.075000 0.000000
0.125000 -0.050000 0.000000
0.125000 -0.025000 0.000000
0.125000 0.000000 0.000000
0.713551 0.070309 0.000000
0.604926 0.075214 0.000000
0.987904 0.074354 0.000000
0.851704 0.029673 0.000000
0.534419 0.108431 0.000000
0.648120 0.046339 0.000000
0.052237 0.144810 0.000000
0.499297 0.077108 0.000000
0.788006 0.068627 0.000000
0.746602 0.050188 0.000000
0.850778 0.065824 0.000000
0.518194 0.057417 0.000000
0.552675 0.046475 0.000000
0.400861 0.134132 0.000000
0.460907 0.023325 0.000000
0.417747 0.153324 0.000000
0.212697 0.151883 0.000000
0.235180 0.077592 0.000000
0.427911 0.139088 0.000000
0.061660 0.103625 0.000000
0.150000 -0.075000 0.000000
0.150000 -0.050000 0.000000
0.150000 -0.025000 0.000000
0.150000 0.000000 0.000000
0.180988 0.177002 0.000000
0.970170 0.030216 0.000000
0.677659 0.067440 0.000000
0.381799 0.049777 0.000000
0.897307 0.024073 0.000000
0.249551 0.093282 0.000000
0.907551 0.064658 0.000000
0.437089 0.187697 0.000000
0.956596 0.049275 0.000000
0.514129 0.184566 0.000000
0.944568 0.023193 0.000000
0.692104 0.020987 0.000000
0.884910 0.073142 0.000000
0.818654 0.059496 0.000000
0.766445 0.035468 0.000000
0.588764 0.080592 0.000000
0.656694 0.028085 0.000000
0.586063 0.113564 0.000000
0.624669 0.085236 0.000000
0.342493 0.116620 0.000000
0.175000 -0.075000 0.000000
0.175000 -0.050000 0.000000
0.175000 -0.025000 0.000000
0.175000 0.000000 0.000000
0.136809 0.078856 0.000000
0.511235 0.157610 0.000000
0.894140 0.044249 0.000000
0.782274 0.056035 0.000000
0.993066 0.021351 0.000000
0.138539 0.100470 0.000000
0.871977 0.025092 0.000000
0.433000 0.045886 0.000000
0.458870 0.047037 0.000000
0.925493 0.027190 0.000000
0.525071 0.090896 0.000000
0.742804 0.082258 0.000000
0.439072 0.087930 0.000000
0.926725 0.057102 0.000000
0.981839 0.055962 0.000000
0.495535 0.048982 0.000000
1.004958 0.044518 0.000000
0.497762 0.096664 0.000000
0.118116 0.126473 0.000000
0.406477 0.102634 0.000000
0.200000 -0.075000 0.000000
0.200000 -0.050000 0.000000
0.200000 -0.025000 0.000000
0.200000 0.000000 0.000000
0.382173 0.121842 0.000000
0.163475 0.027061 0.000000
0.314079 0.120120 0.000000
0.821697 0.021973 0.000000
0.453103 0.106310 0.000000
0.373197 0.170065 0.000000
0.625199 0.044145 0.000000
0.962703 0.070780 0.000000
0.391710 0.157610 0.000000
0.096537 0.081515 0.000000
0.808299 0.035368 0.000000
0.636361 0.072382 0.000000
0.091432 0.020233 0.000000
0.451608 0.190361 0.000000
0.552990 0.023455 0.000000
0.229347 0.138510 0.000000
0.715564 0.049634 0.000000
0.412678 0.200346 0.000000
0.865117 0.057192 0.000000
0.674661 0.094130 0.000000
0.225000 -0.075000 0.000000
0.225000 -0.050000 0.000000
0.225000 -0.025000 0.000000
0.225000 0.000000 0.000000
0.422908 0.074437 0.000000
0.837857 0.052685 0.000000
0.526232 0.174489 0.000000
0.324637 0.162115 0.000000
0.050908 0.162541 0.000000
0.084917 0.145404 0.000000
0.479176 0.162359 0.000000
0.927466 0.076764 0.000000
0.583595 0.043002 0.000000
0.030941 0.095068 0.000000
0.565728 0.087525 0.000000
0.209496 0.165064 0.000000
0.431602 0.022770 0.000000
0.474847 0.102929 0.000000
0.174531 0.045859 0.000000
0.214815 0.117164 0.000000
0.547922 0.136569 0.000000
0.024621 0.023873 0.000000
0.297148 0.135489 0.000000
0.410627 0.050310 0.000000
0.250000 -0.075000 0.000000
0.250000 -0.050000 0.000000
0.250000 -0.025000 0.000000
0.250000 0.000000 0.000000
0.745095 0.024027 0.000000
0.410956 0.186121 0.000000
0.323386 0.176984 0.000000
0.398902 0.072754 0.000000
0.344312 0.022615 0.000000
0.358358 0.152207 0.000000
0.124328 0.152227 0.000000
0.375610 0.189593 0.000000
0.325860 0.137475 0.000000
0.476756 0.123941 0.000000
0.250121 0.167281 0.000000
0.025370 0.117078 0.000000
0.179686 0.142629 0.000000
0.586356 0.022069 0.000000
0.424528 0.114819 0.000000
0.455406 0.069785 0.000000
0.356827 0.129971 0.000000
0.750738 0.071614 0.000000
0.025156 0.048787 0.000000
0.491247 0.171071 0.000000
0.275000 -0.075000 0.000000
0.275000 -0.050000 0.000000
0.275000 -0.025000 0.000000
0.275000 0.000000 0.000000
0.300000 -0.075000 0.000000
0.300000 -0.050000 0.000000
0.300000 -0.025000 0.000000
0.300000 0.000000 0.000000
0.325000 -0.075000 0.000000
0.325000 -0.050000 0.000000
0.325000 -0.025000 0.000000
0.325000 0.000000 0.000000
0.350000 -0.075000 0.000000
0.350000 -0.050000 0.000000
0.350000 -0.025000 0.000000
0.350000 0.000000 0.000000
0.375000 -0.075000 0.000000
0.375000 -0.050000 0.000000
0.375000 -0.025000 0.000000
0.375000 0.000000 0.000000
0.400000 -0.075000 0.000000
0.400000 -0.050000 0.000000
0.400000 -0.025000 0.000000
0.400000 0.000000 0.000000
0.425000 -0.075000 0.000000
0.425000 -0.050000 0.000000
0.425000 -0.025000 0.000000
0.425000 0.000000 0.000000
0.450000 -0.075000 0.000000
0.450000 -0.050000 0.000000
0.450000 -0.025000 0.000000
0.450000 0.000000 0.000000
0.475000 -0.075000 0.000000
0.475000 -0.050000 0.000000
0.475000 -0.025000 0.000000
0.475000 0.000000 0.000000
0.500000 -0.075000 0.000000
0.500000 -0.050000 0.000000
0.500000 -0.025000 0.000000
0.500000 0.000000 0.000000
0.525000 -0.075000 0.000000
0.525000 -0.050000 0.000000
0.525000 -0.025000 0.000000
0.525000 0.000000 0.000000
0.550000 -0.075000 0.000000
0.550000 -0.050000 0.000000
0.550000 -0.025000 0.000000
0.550000 0.000000 0.000000
0.575000 -0.075000 0.000000
0.575000 -0.050000 0.000000
0.575000 -0.025000 0.000000
0.575000 0.000000 0.000000
0.600000 -0.075000 0.000000
0.600000 -0.050000 0.000000
0.600000 -0.025000 0.000000
0.600000 0.000000 0.000000
0.625000 -0.075000 0.000000
0.625000 -0.050000 0.000000
0.625000 -0.025000 0.000000
0.625000 0.000000 0.000000
0.650000 -0.075000 0.000000
0.650000 -0.050000 0.000000
0.650000 -0.025000 0.000000
0.650000 0.000000 0.000000
0.675000 -0.075000 0.000000
0.675000 -0.050000 0.000000
0.675000 -0.025000 0.000000
0.675000 0.000000 0.000000
0.700000 -0.075000 0.000000
0.700000 -0.050000 0.000000
0.700000 -0.025000 0.000000
0.700000 0.000000 0.000000
0.725000 -0.075000 0.000000
0.725000 -0.050000 0.000000
0.725000 -0.025000 0.000000
0.725000 0.000000 0.000000
0.750000 -0.075000 0.000000
0.750000 -0.050000 0.000000
0.750000 -0.025000 0.000000
0.750000 0.000000 0.000000
0.775000 -0.075000 0.000000
0.775000 -0.050000 0.000000
0.775000 -0.025000 0.000000
0.775000 0.000000 0.000000
0.800000 -0.075000 0.000000
0.800000 -0.050000 0.000000
0.800000 -0.025000 0.000000
0.800000 0.000000 0.000000
0.825000 -0.075000 0.000000
0.825000 -0.050000 0.000000
0.825000 -0.025000 0.000000
0.825000 0.000000 0.000000
0.850000 -0.075000 0.000000
0.850000 -0.050000 0.000000
0.850000 -0.025000 0.000000
0.850000 0.000000 0.000000
0.875000 -0.075000 0.000000
0.875000 -0.050000 0.000000
0.875000 -0.025000 0.000000
0.875000 0.000000 0.000000
0.900000 -0.075000 0.000000
0.900000 -0.050000 0.000000
0.900000 -0.025000 0.000000
0.900000 0.000000 0.000000
0.925000 -0.075000 0.000000
0.925000 -0.050000 0.000000
0.925000 -0.025000 0.000000
0.925000 0.000000 0.000000
0.950000 -0.075000 0.000000
0.950000 -0.050000 0.000000
0.950000 -0.025000 0.000000
0.950000 0.000000 0.000000
0.975000 -0.075000 0.000000
0.975000 -0.050000 0.000000
0.975000 -0.025000 0.000000
0.975000 0.000000 0.000000
1.000000 -0.075000 0.000000
1.000000 -0.050000 0.000000
1.000000 -0.025000 0.000000
1.000000 0.000000 0.000000
1.025000 -0.075000 0.000000
1.025000 -0.050000 0.000000
1.025000 -0.025000 0.000000
1.025000 0.000000 0.000000
1.025000 0.025000 0.000000
1.025000 0.050000 0.000000
1.025000 0.075000 0.000000
1.025000 0.100000 0.000000
1.025000 0.125000 0.000000
1.025000 0.150000 0.000000
1.025000 0.175000 0.000000
1.025000 0.200000 0.000000
1.025000 0.225000 0.000000
1.025000 0.250000 0.000000
1.025000 0.275000 0.000000
1.025000 0.300000 0.000000
1.025000 0.325000 0.000000
1.025000 0.350000 0.000000
1.025000 0.375000 0.000000
1.025000 0.400000 0.000000
1.025000 0.425000 0.000000
1.025000 0.450000 0.000000
1.025000 0.475000 0.000000
1.025000 0.500000 0.000000
1.025000 0.525000 0.000000
1.025000 0.550000 0.000000
1.025000 0.575000 0.000000
1.025000 0.600000 0.000000
1.050000 -0.075000 0.000000
1.050000 -0.050000 0.000000
1.050000 -0.025000 0.000000
1.050000 0.000000 0.000000
1.050000 0.025000 0.000000
1.050000 0.050000 0.000000
1.050000 0.075000 0.000000
1.050000 0.100000 0.000000
1.050000 0.125000 0.000000
1.050000 0.150000 0.000000
1.050000 0.175000 0.000000
1.050000 0.200000 0.000000
1.050000 0.225000 0.000000
1.050000 0.250000 0.000000
1.050000 0.275000 0.000000
1.050000 0.300000 0.000000
1.050000 0.325000 0.000000
1.050000 0.350000 0.000000
1.050000 0.375000 0.000000
1.050000 0.400000 0.000000
1.050000 0.425000 0.000000
1.050000 0.450000 0.000000
1.050000 0.475000 0.000000
1.050000 0.500000 0.000000
1.050000 0.525000 0.000000
1.050000 0.550000 0.000000
1.050000 0.575000 0.000000
1.050000 0.600000 0.000000
1.075000 -0.075000 0.000000
1.075000 -0.050000 0.000000
1.075000 -0.025000 0.000000
1.075000 0.000000 0.000000
1.075000 0.025000 0.000000
1.075000 0.050000 0.000000
1.075000 0.075000 0.000000
1.075000 0.100000 0.000000
1.075000 0.125000 0.000000
1.075000 0.150000 0.000000
1.075000 0.175000 0.000000
1.075000 0.200000 0.000000
1.075000 0.225000 0.000000
1.075000 0.250000 0.000000
1.075000 0.275000 0.000000
1.075000 0.300000 0.000000
1.075000 0.325000 0.000000
1.075000 0.350000 0.000000
1.075000 0.375000 0.000000
1.075000 0.400000 0.000000
1.075000 0.425000 0.000000
1.075000 0.450000 0.000000
1.075000 0.475000 0.000000
1.075000 0.500000 0.000000
1.075000 0.525000 0.000000
1.075000 0.550000 0.000000
1.075000 0.575000 0.000000
1.075000 0.600000 0.000000
1.100000 -0.075000 0.000000
1.100000 -0.050000 0.000000
1.100000 -0.025000 0.000000
1.100000 0.000000 0.000000
1.100000 0.025000 0.000000
1.100000 0.050000 0.000000
1.100000 0.075000 0.000000
1.100000 0.100000 0.000000
1.100000 0.125000 0.000000
1.100000 0.150000 0.000000
1.100000 0.175000 0.000000
1.100000 0.200000 0.000000
1.100000 0.225000 0.000000
1.100000 0.250000 0.000000
1.100000 0.275000 0.000000
1.100000 0.300000 0.000000
1.100000 0.325000 0.000000
1.100000 0.350000 0.000000
1.100000 0.375000 0.000000
1.100000 0.400000 0.000000
1.100000 0.425000 0.000000
1.100000 0.450000 0.000000
1.100000 0.475000 0.000000
1.100000 0.500000 0.000000
1.100000 0.525000 0.000000
1.100000 0.550000 0.000000
1.100000 0.575000 0.000000
1.100000 0.600000 0.000000
</DataArray>
</Points>
<PointData>
<DataArray NumberOfComponents='1' type='Int32' Name='ParticleType' format='ascii'>
3
3
3
3
3
3
3
3
3
3
3
3
3
3
3
3
3
3
3
3
3
3
3
3
3
3
2
2
3
3
3
3
3
3
3
3
3
3
3
3
3
3
3
3
3
3
3
3
3
3
3
3
3
3
2
2
3
3
2
2
2
2
2
2
2
2
2
2
2
2
2
2
2
2
2
2
2
2
2
2
2
2
2
2
3
3
2
2
2
2
2
2
2
2
2
2
2
2
2
2
2
2
2
2
2
2
2
2
2
2
2
2
3
3
2
2
0
0
0
0
0
0
0
0
0
0
0
0
0
0
0
0
0
0
0
0
3
3
2
2
0
0
0
0
0
0
0
0
0
0
0
0
0
0
0
0
0
0
0
0
3
3
2
2
0
0
0
0
0
0
0
0
0
0
0
0
0
0
0
0
0
0
0
0
3
3
2
2
0
0
0
0
0
0
0
0
0
0
0
0
0
0
0
0
0
0
0
0
3
3
2
2
0
0
0
0
0
0
0
0
0
0
0
0
0
0
0
0
0
0
0
0
3
3
2
2
0
0
0
0
0
0
0
0
0
0
0
0
0
0
0
0
0
0
0
0
3
3
2
2
0
0
0
0
0
0
0
0
0
0
0
0
0
0
0
0
0
0
0
0
3
3
2
2
0
0
0
0
0
0
0
0
0
0
0
0
0
0
0
0
0
0
0
0
3
3
2
2
0
0
0
0
0
0
0
0
0
0
0
0
0
0
0
0
0
0
0
0
3
3
2
2
0
0
0
0
0
0
0
0
0
0
0
0
0
0
0
0
0
0
0
0
3
3
2
2
3
3
2
2
3
3
2
2
3
3
2
2
3
3
2
2
3
3
2
2
3
3
2
2
3
3
2
2
3
3
2
2
3
3
2
2
3
3
2
2
3
3
2
2
3
3
2
2
3
3
2
2
3
3
2
2
3
3
2
2
3
3
2
2
3
3
2
2
3
3
2
2
3
3
2
2
3
3
2
2
3
3
2
2
3
3
2
2
3
3
2
2
3
3
2
2
3
3
2
2
3
3
2
2
3
3
2
2
3
3
2
2
3
3
2
2
3
3
2
2
2
2
2
2
2
2
2
2
2
2
2
2
2
2
2
2
2
2
2
2
2
2
2
2
3
3
2
2
2
2
2
2
2
2
2
2
2
2
2
2
2
2
2
2
2
2
2
2
2
2
2
2
3
3
3
3
3
3
3
3
3
3
3
3
3
3
3
3
3
3
3
3
3
3
3
3
3
3
2
2
3
3
3
3
3
3
3
3
3
3
3
3
3
3
3
3
3
3
3
3
3
3
3
3
3
3
2
2
</DataArray>
<DataArray NumberOfComponents='1' type='Float32' Name='Velocity' format='ascii'>
0.000000
0.000000
0.000000
0.000000
0.000000
0.000000
0.000000
0.000000
0.000000
0.000000
0.000000
0.000000
0.000000
0.000000
0.000000
0.000000
0.000000
0.000000
0.000000
0.000000
0.000000
0.000000
0.000000
0.000000
0.000000
0.000000
0.000000
0.000000
0.000000
0.000000
0.000000
0.000000
0.000000
0.000000
0.000000
0.000000
0.000000
0.000000
0.000000
0.000000
0.000000
0.000000
0.000000
0.000000
0.000000
0.000000
0.000000
0.000000
0.000000
0.000000
0.000000
0.000000
0.000000
0.000000
0.000000
0.000000
0.000000
0.000000
0.000000
0.000000
0.000000
0.000000
0.000000
0.000000
0.000000
0.000000
0.000000
0.000000
0.000000
0.000000
0.000000
0.000000
0.000000
0.000000
0.000000
0.000000
0.000000
0.000000
0.000000
0.000000
0.000000
0.000000
0.000000
0.000000
0.000000
0.000000
0.000000
0.000000
0.000000
0.000000
0.000000
0.000000
0.000000
0.000000
0.000000
0.000000
0.000000
0.000000
0.000000
0.000000
0.000000
0.000000
0.000000
0.000000
0.000000
0.000000
0.000000
0.000000
0.000000
0.000000
0.000000
0.000000
0.000000
0.000000
0.000000
0.000000
0.500628
0.301752
0.327781
0.427853
0.379698
0.389408
0.345909
0.615626
0.494727
0.552316
0.392450
0.404293
0.505809
0.568590
0.480598
0.040511
0.099323
0.479762
0.290515
0.489257
0.000000
0.000000
0.000000
0.000000
0.397807
0.259259
0.438267
0.167882
0.060832
0.708565
0.281197
0.332209
0.288671
0.777123
0.256809
0.190475
0.312170
1.083992
0.414330
0.209716
0.611166
0.515107
0.418904
0.228685
0.000000
0.000000
0.000000
0.000000
0.534078
0.362411
0.495791
0.538299
0.795420
0.470079
0.821437
0.113236
0.780669
0.596536
0.336321
0.176357
0.399582
0.327036
0.352684
0.183476
0.247118
0.113960
0.247889
0.396838
0.000000
0.000000
0.000000
0.000000
0.543550
0.320372
0.519951
0.106763
0.465046
0.162719
0.230909
0.556869
0.320944
0.608588
0.589815
0.754633
0.634853
0.464717
0.305324
0.360099
0.590347
0.679679
0.410254
0.643038
0.000000
0.000000
0.000000
0.000000
0.683571
0.335069
0.198564
0.105784
0.502989
0.797193
0.420751
0.574044
0.160178
0.323342
0.238708
0.521278
0.750441
0.587890
0.800823
0.606830
0.211534
0.413302
0.746236
0.211329
0.000000
0.000000
0.000000
0.000000
0.247715
0.304840
0.495243
0.664144
0.085211
0.272097
0.150433
0.009751
0.333778
0.782366
0.208024
0.147051
0.455686
0.281131
0.112449
0.282825
0.330626
0.399755
0.353003
0.484475
0.000000
0.000000
0.000000
0.000000
0.635382
0.229382
0.173467
0.378378
0.102000
0.404469
0.083088
0.667229
0.621207
0.243663
0.766804
0.201758
1.016755
0.170943
0.128158
0.851125
0.174510
0.370601
0.287339
0.804452
0.000000
0.000000
0.000000
0.000000
0.642369
0.365675
0.388566
0.204505
0.484452
0.422495
0.568608
0.392862
0.946666
0.105831
0.138477
0.302662
0.342850
0.220393
0.662841
0.446501
0.153387
0.592299
0.257781
0.244988
0.000000
0.000000
0.000000
0.000000
0.775262
0.056835
0.593053
0.456176
0.186685
0.631191
0.454001
0.397210
0.581298
0.416643
0.429888
0.228249
0.339634
0.867803
0.634966
0.207939
0.504934
0.076519
0.123969
0.594827
0.000000
0.000000
0.000000
0.000000
0.160483
0.466209
0.569806
0.768115
0.291374
0.673598
0.278207
0.410794
0.738494
0.454868
0.493980
0.315499
0.307276
0.503533
0.567980
0.650680
0.570481
0.071821
0.140702
0.437146
0.000000
0.000000
0.000000
0.000000
0.000000
0.000000
0.000000
0.000000
0.000000
0.000000
0.000000
0.000000
0.000000
0.000000
0.000000
0.000000
0.000000
0.000000
0.000000
0.000000
0.000000
0.000000
0.000000
0.000000
0.000000
0.000000
0.000000
0.000000
0.000000
0.000000
0.000000
0.000000
0.000000
0.000000
0.000000
0.000000
0.000000
0.000000
0.000000
0.000000
0.000000
0.000000
0.000000
0.000000
0.000000
0.000000
0.000000
0.000000
0.000000
0.000000
0.000000
0.000000
0.000000
0.000000
0.000000
0.000000
0.000000
0.000000
0.000000
0.000000
0.000000
0.000000
0.000000
0.000000
0.000000
0.000000
0.000000
0.000000
0.000000
0.000000
0.000000
0.000000
0.000000
0.000000
0.000000
0.000000
0.000000
0.000000
0.000000
0.000000
0.000000
0.000000
0.000000
0.000000
0.000000
0.000000
0.000000
0.000000
0.000000
0.000000
0.000000
0.000000
0.000000
0.000000
0.000000
0.000000
0.000000
0.000000
0.000000
0.000000
0.000000
0.000000
0.000000
0.000000
0.000000
0.000000
0.000000
0.000000
0.000000
0.000000
0.000000
0.000000
0.000000
0.000000
0.000000
0.000000
0.000000
0.000000
0.000000
0.000000
0.000000
0.000000
0.000000
0.000000
0.000000
0.000000
0.000000
0.000000
0.000000
0.000000
0.000000
0.000000
0.000000
0.000000
0.000000
0.000000
0.000000
0.000000
0.000000
0.000000
0.000000
0.000000
0.000000
0.000000
0.000000
0.000000
0.000000
0.000000
0.000000
0.000000
0.000000
0.000000
0.000000
0.000000
0.000000
0.000000
0.000000
0.000000
0.000000
0.000000
0.000000
0.000000
0.000000
0.000000
0.000000
0.000000
0.000000
0.000000
0.000000
0.000000
0.000000
0.000000
0.000000
0.000000
0.000000
0.000000
0.000000
0.000000
0.000000
0.000000
0.000000
0.000000
0.000000
0.000000
0.000000
0.000000
0.000000
0.000000
0.000000
0.000000
0.000000
0.000000
0.000000
0.000000
0.000000
0.000000
0.000000
0.000000
0.000000
0.000000
0.000000
0.000000
0.000000
0.000000
0.000000
0.000000
0.000000
0.000000
0.000000
0.000000
0.000000
0.000000
0.000000
0.000000
0.000000
0.000000
0.000000
0.000000
0.000000
0.000000
0.000000
0.000000
0.000000
0.000000
0.000000
0.000000
0.000000
0.000000
0.000000
0.000000
0.000000
0.000000
</DataArray>
<DataArray NumberOfComponents='1' type='Float32' Name='pressure' format='ascii'>
0.000000
0.000000
0.000000
0.000000
0.000000
0.000000
0.000000
0.000000
0.000000
0.000000
0.000000
0.000000
0.000000
0.000000
0.000000
0.000000
0.000000
0.000000
0.000000
0.000000
0.000000
0.000000
0.000000
0.000000
0.000000
0.000000
0.000000
0.000000
0.000000
0.000000
0.000000
0.000000
0.000000
0.000000
0.000000
0.000000
0.000000
0.000000
0.000000
0.000000
0.000000
0.000000
0.000000
0.000000
0.000000
0.000000
0.000000
0.000000
0.000000
0.000000
0.000000
0.000000
0.000000
0.000000
0.000000
0.000000
0.000000
0.000000
2120.387939
1835.825439
1417.021606
650.170837
566.935181
0.000000
1107.720337
582.745178
0.000000
0.000000
0.000000
0.000000
0.000000
0.000000
0.000000
0.000000
0.000000
0.000000
0.000000
0.000000
0.000000
0.000000
0.000000
0.000000
0.000000
0.000000
0.000000
0.000000
2284.685059
2485.332764
1434.073730
0.000000
252.521149
0.000000
1295.950073
0.000000
0.000000
0.000000
0.000000
0.000000
0.000000
0.000000
0.000000
0.000000
0.000000
0.000000
0.000000
0.000000
0.000000
0.000000
0.000000
0.000000
0.000000
0.000000
0.000000
0.000000
2815.406494
2764.641602
1700.130615
0.000000
922.013977
1463.724121
1187.038574
187.251801
750.474854
557.891418
2493.257080
0.000000
2497.538086
1624.080566
1874.385132
2326.678711
0.000000
727.089844
0.000000
2048.072266
754.603333
1431.778809
0.000000
0.000000
3072.312256
1817.410889
0.000000
1456.143921
1504.348877
1277.581665
988.441772
106.316048
1331.567871
0.000000
0.000000
0.000000
1249.890991
359.127045
0.000000
0.000000
698.437439
1885.000732
58.161461
1262.018555
0.000000
1375.358887
0.000000
0.000000
3514.388428
1628.489014
764.323486
0.000000
0.000000
1535.062866
0.000000
0.000000
492.131165
995.459106
899.787048
1103.030762
673.644653
2006.987793
1526.692871
0.000000
1333.305420
1242.534790
583.692078
703.511719
1292.857178
1152.329590
0.000000
0.000000
4267.433105
2111.507812
890.066284
0.000000
0.000000
0.000000
485.763763
0.000000
515.839355
1665.686890
677.848694
731.509277
654.475403
588.972961
0.000000
0.000000
0.000000
1185.443848
649.688660
504.127106
1930.460693
618.940491
0.000000
0.000000
3861.270020
2209.935059
0.000000
0.000000
0.000000
0.000000
0.000000
937.981323
0.000000
420.910248
0.000000
0.000000
0.000000
676.531921
459.759766
636.689270
1611.332642
0.000000
2270.839355
1893.121704
0.000000
801.202332
0.000000
0.000000
2977.109131
2200.696533
0.000000
536.566162
443.933167
1500.912231
1453.348755
269.407227
0.000000
0.000000
0.000000
0.000000
849.589111
1345.815186
0.000000
0.000000
116.738197
0.000000
0.000000
0.000000
0.000000
0.000000
0.000000
0.000000
1707.768555
1816.792114
974.629150
0.000000
0.000000
0.000000
0.000000
1349.884155
241.635727
1340.575806
834.814514
0.000000
237.976776
0.000000
0.000000
0.000000
544.182800
915.373596
0.000000
0.000000
676.328552
1016.175720
0.000000
0.000000
1409.461914
841.361389
0.000000
871.212280
1282.384155
278.738281
1051.747925
2115.071045
989.046326
0.000000
0.000000
580.669800
291.945862
0.000000
1200.905151
0.000000
662.759705
0.000000
0.000000
0.000000
336.232056
0.000000
0.000000
0.000000
1651.862549
1584.202393
508.650482
253.969208
0.000000
205.579193
0.000000
0.000000
0.000000
0.000000
348.420776
0.000000
0.000000
0.000000
308.340149
0.000000
1520.730225
145.349976
0.000000
908.046936
566.656067
631.603394
0.000000
0.000000
1471.672363
1746.802490
80.410248
535.156128
0.000000
640.666748
3036.255615
99.154808
0.000000
0.000000
585.935608
0.000000
0.000000
0.000000
0.000000
739.184082
0.000000
0.000000
655.796265
0.000000
0.000000
0.000000
0.000000
0.000000
1531.453735
2240.140625
0.000000
0.000000
1434.043823
1268.466309
0.000000
0.000000
997.560730
820.544434
0.000000
0.000000
1805.863525
1370.216553
0.000000
0.000000
661.451782
0.000000
0.000000
0.000000
1334.482056
962.409607
0.000000
0.000000
2427.316162
2382.534180
0.000000
0.000000
2593.809326
2463.513428
0.000000
0.000000
1796.474243
1939.658447
0.000000
0.000000
1475.656128
2153.959229
0.000000
0.000000
793.634644
204.687805
0.000000
0.000000
1769.510498
1379.352661
0.000000
0.000000
2028.020630
261.505280
0.000000
0.000000
2944.939453
1598.549316
0.000000
0.000000
2732.965332
603.138428
0.000000
0.000000
107.397095
0.000000
0.000000
0.000000
1147.202148
0.000000
0.000000
0.000000
2201.456055
2122.383057
0.000000
0.000000
686.623108
379.091400
0.000000
0.000000
840.126038
810.028748
0.000000
0.000000
777.177979
0.000000
0.000000
0.000000
792.340454
629.319336
0.000000
0.000000
1623.832886
984.245850
0.000000
0.000000
0.000000
0.000000
0.000000
0.000000
657.068726
1111.493286
0.000000
0.000000
1113.504395
1639.104736
0.000000
0.000000
309.205414
389.779633
0.000000
0.000000
1267.955322
1831.279175
0.000000
0.000000
750.583557
0.000000
0.000000
0.000000
1627.237305
1458.656860
0.000000
0.000000
314.732269
0.000000
0.000000
0.000000
0.000000
0.000000
0.000000
0.000000
0.000000
0.000000
0.000000
0.000000
0.000000
0.000000
0.000000
0.000000
0.000000
0.000000
0.000000
0.000000
0.000000
0.000000
0.000000
0.000000
0.000000
0.000000
0.000000
0.000000
150.715775
0.000000
212.815063
1456.927612
0.000000
0.000000
0.000000
0.000000
0.000000
0.000000
0.000000
0.000000
0.000000
0.000000
0.000000
0.000000
0.000000
0.000000
0.000000
0.000000
0.000000
0.000000
0.000000
0.000000
0.000000
0.000000
0.000000
0.000000
0.000000
0.000000
0.000000
0.000000
0.000000
0.000000
0.000000
0.000000
0.000000
0.000000
0.000000
0.000000
0.000000
0.000000
0.000000
0.000000
0.000000
0.000000
0.000000
0.000000
0.000000
0.000000
0.000000
0.000000
0.000000
0.000000
0.000000
0.000000
0.000000
0.000000
0.000000
0.000000
0.000000
0.000000
0.000000
0.000000
0.000000
0.000000
0.000000
0.000000
0.000000
0.000000
0.000000
0.000000
0.000000
0.000000
0.000000
0.000000
0.000000
0.000000
0.000000
0.000000
0.000000
0.000000
</DataArray>
</PointData>
<Cells>
<DataArray type='Int32' Name='connectivity' format='ascii'>
0
1
2
3
4
5
6
7
8
9
10
11
12
13
14
15
16
17
18
19
20
21
22
23
24
25
26
27
28
29
30
31
32
33
34
35
36
37
38
39
40
41
42
43
44
45
46
47
48
49
50
51
52
53
54
55
56
57
58
59
60
61
62
63
64
65
66
67
68
69
70
71
72
73
74
75
76
77
78
79
80
81
82
83
84
85
86
87
88
89
90
91
92
93
94
95
96
97
98
99
100
101
102
103
104
105
106
107
108
109
110
111
112
113
114
115
116
117
118
119
120
121
122
123
124
125
126
127
128
129
130
131
132
133
134
135
136
137
138
139
140
141
142
143
144
145
146
147
148
149
150
151
152
153
154
155
156
157
158
159
160
161
162
163
164
165
166
167
168
169
170
171
172
173
174
175
176
177
178
179
180
181
182
183
184
185
186
187
188
189
190
191
192
193
194
195
196
197
198
199
200
201
202
203
204
205
206
207
208
209
210
211
212
213
214
215
216
217
218
219
220
221
222
223
224
225
226
227
228
229
230
231
232
233
234
235
236
237
238
239
240
241
242
243
244
245
246
247
248
249
250
251
252
253
254
255
256
257
258
259
260
261
262
263
264
265
266
267
268
269
270
271
272
273
274
275
276
277
278
279
280
281
282
283
284
285
286
287
288
289
290
291
292
293
294
295
296
297
298
299
300
301
302
303
304
305
306
307
308
309
310