<?xml version='1.0' encoding='UTF-8'?>
<VTKFile xmlns='VTK' byte_order='LittleEndian' version='0.1' type='UnstructuredGrid'>
<UnstructuredGrid>
<Piece NumberOfCells='584' NumberOfPoints='584'>
<Points>
<DataArray NumberOfComponents='3' type='Float32' Name='Position' format='ascii'>
-0.075000 -0.075000 0.000000
-0.075000 -0.050000 0.000000
-0.075000 -0.025000 0.000000
-0.075000 0.000000 0.000000
-0.075000 0.025000 0.000000
-0.075000 0.050000 0.000000
-0.075000 0.075000 0.000000
-0.075000 0.100000 0.000000
-0.075000 0.125000 0.000000
-0.075000 0.150000 0.000000
-0.075000 0.175000 0.000000
-0.075000 0.200000 0.000000
-0.075000 0.225000 0.000000
-0.075000 0.250000 0.000000
-0.075000 0.275000 0.000000
-0.075000 0.300000 0.000000
-0.075000 0.325000 0.000000
-0.075000 0.350000 0.000000
-0.075000 0.375000 0.000000
-0.075000 0.400000 0.000000
-0.075000 0.425000 0.000000
-0.075000 0.450000 0.000000
-0.075000 0.475000 0.000000
-0.075000 0.500000 0.000000
-0.075000 0.525000 0.000000
-0.075000 0.550000 0.000000
-0.075000 0.575000 0.000000
-0.075000 0.600000 0.000000
-0.050000 -0.075000 0.000000
-0.050000 -0.050000 0.000000
-0.050000 -0.025000 0.000000
-0.050000 0.000000 0.000000
-0.050000 0.025000 0.000000
-0.050000 0.050000 0.000000
-0.050000 0.075000 0.000000
-0.050000 0.100000 0.000000
-0.050000 0.125000 0.000000
-0.050000 0.150000 0.000000
-0.050000 0.175000 0.000000
-0.050000 0.200000 0.000000
-0.050000 0.225000 0.000000
-0.050000 0.250000 0.000000
-0.050000 0.275000 0.000000
-0.050000 0.300000 0.000000
-0.050000 0.325000 0.000000
-0.050000 0.350000 0.000000
-0.050000 0.375000 0.000000
-0.050000 0.400000 0.000000
-0.050000 0.425000 0.000000
-0.050000 0.450000 0.000000
-0.050000 0.475000 0.000000
-0.050000 0.500000 0.000000
-0.050000 0.525000 0.000000
-0.050000 0.550000 0.000000
-0.050000 0.575000 0.000000
-0.050000 0.600000 0.000000
-0.025000 -0.075000 0.000000
-0.025000 -0.050000 0.000000
-0.025000 -0.025000 0.000000
-0.025000 0.000000 0.000000
-0.025000 0.025000 0.000000
-0.025000 0.050000 0.000000
-0.025000 0.075000 0.000000
-0.025000 0.100000 0.000000
-0.025000 0.125000 0.000000
-0.025000 0.150000 0.000000
-0.025000 0.175000 0.000000
-0.025000 0.200000 0.000000
-0.025000 0.225000 0.000000
-0.025000 0.250000 0.000000
-0.025000 0.275000 0.000000
-0.025000 0.300000 0.000000
-0.025000 0.325000 0.000000
-0.025000 0.350000 0.000000
-0.025000 0.375000 0.000000
-0.025000 0.400000 0.000000
-0.025000 0.425000 0.000000
-0.025000 0.450000 0.000000
-0.025000 0.475000 0.000000
-0.025000 0.500000 0.000000
-0.025000 0.525000 0.000000
-0.025000 0.550000 0.000000
-0.025000 0.575000 0.000000
-0.025000 0.600000 0.000000
0.000000 -0.075000 0.000000
0.000000 -0.050000 0.000000
0.000000 -0.025000 0.000000
0.000000 0.000000 0.000000
0.000000 0.025000 0.000000
0.000000 0.050000 0.000000
0.000000 0.075000 0.000000
0.000000 0.100000 0.000000
0.000000 0.125000 0.000000
0.000000 0.150000 0.000000
0.000000 0.175000 0.000000
0.000000 0.200000 0.000000
0.000000 0.225000 0.000000
0.000000 0.250000 0.000000
0.000000 0.275000 0.000000
0.000000 0.300000 0.000000
0.000000 0.325000 0.000000
0.000000 0.350000 0.000000
0.000000 0.375000 0.000000
0.000000 0.400000 0.000000
0.000000 0.425000 0.000000
0.000000 0.450000 0.000000
0.000000 0.475000 0.000000
0.000000 0.500000 0.000000
0.000000 0.525000 0.000000
0.000000 0.550000 0.000000
0.000000 0.575000 0.000000
0.000000 0.600000 0.000000
0.025000 -0.075000 0.000000
0.025000 -0.050000 0.000000
0.025000 -0.025000 0.000000
0.025000 0.000000 0.000000
0.205992 0.023457 0.000000
0.183072 0.024083 0.000000
0.150147 0.023701 0.000000
0.110190 0.028286 0.000000
0.270712 0.051699 0.000000
0.059260 0.023838 0.000000
0.352235 0.037041 0.000000
0.227806 0.032818 0.000000
0.131902 0.029541 0.000000
0.100026 0.050587 0.000000
0.176586 0.044310 0.000000
0.150345 0.054986 0.000000
0.087818 0.022046 0.000000
0.024629 0.025392 0.000000
0.031592 0.043123 0.000000
0.028042 0.071761 0.000000
0.074311 0.055756 0.000000
0.056278 0.085322 0.000000
0.029898 0.085548 0.000000
0.074891 0.077601 0.000000
0.050000 -0.075000 0.000000
0.050000 -0.050000 0.000000
0.050000 -0.025000 0.000000
0.050000 0.000000 0.000000
0.249829 0.023168 0.000000
0.311173 0.074508 0.000000
0.429005 0.065746 0.000000
0.410993 0.057030 0.000000
0.396015 0.083955 0.000000
0.442839 0.092992 0.000000
0.372822 0.050189 0.000000
0.534812 0.048013 0.000000
0.295994 0.030703 0.000000
0.313807 0.025862 0.000000
0.372980 0.074824 0.000000
0.305052 0.058542 0.000000
0.054603 0.042515 0.000000
0.335924 0.065768 0.000000
0.166173 0.085603 0.000000
0.206948 0.059103 0.000000
0.130698 0.067174 0.000000
0.177865 0.062483 0.000000
0.091183 0.080062 0.000000
0.112481 0.067955 0.000000
0.075000 -0.075000 0.000000
0.075000 -0.050000 0.000000
0.075000 -0.025000 0.000000
0.075000 0.000000 0.000000
0.269967 0.025560 0.000000
0.393628 0.041063 0.000000
0.404568 0.021937 0.000000
0.370262 0.026059 0.000000
0.575197 0.048250 0.000000
0.633717 0.024006 0.000000
0.665052 0.019940 0.000000
0.450092 0.063343 0.000000
0.589177 0.096272 0.000000
0.592200 0.044531 0.000000
0.445834 0.040190 0.000000
0.328657 0.128396 0.000000
0.332184 0.089593 0.000000
0.278469 0.065349 0.000000
0.259304 0.075429 0.000000
0.197557 0.083276 0.000000
0.223866 0.070259 0.000000
0.352815 0.088850 0.000000
0.299841 0.101115 0.000000
0.143183 0.083735 0.000000
0.100000 -0.075000 0.000000
0.100000 -0.050000 0.000000
0.100000 -0.025000 0.000000
0.100000 0.000000 0.000000
0.462725 0.021789 0.000000
0.429361 0.028267 0.000000
0.612717 0.030764 0.000000
0.847641 0.025304 0.000000
0.334177 0.026783 0.000000
0.743805 0.019568 0.000000
0.753514 0.045881 0.000000
0.726304 0.067959 0.000000
0.673334 0.042814 0.000000
0.703491 0.022171 0.000000
0.479687 0.037452 0.000000
0.497253 0.022358 0.000000
0.568416 0.077338 0.000000
0.609493 0.067222 0.000000
0.498540 0.074873 0.000000
0.231015 0.052352 0.000000
0.504727 0.052813 0.000000
0.516307 0.069757 0.000000
0.389514 0.101257 0.000000
0.375515 0.099572 0.000000
0.125000 -0.075000 0.000000
0.125000 -0.050000 0.000000
0.125000 -0.025000 0.000000
0.125000 0.000000 0.000000
0.871025 0.027623 0.000000
0.730105 0.042966 0.000000
0.993846 0.075900 0.000000
0.952188 0.022097 0.000000
0.964172 0.114956 0.000000
0.523807 0.025008 0.000000
0.846579 0.055196 0.000000
0.905719 0.082002 0.000000
0.826373 0.028076 0.000000
0.740676 0.068197 0.000000
0.867499 0.082567 0.000000
0.807222 0.049658 0.000000
0.682622 0.075512 0.000000
0.553158 0.046507 0.000000
0.479789 0.062512 0.000000
0.585904 0.019644 0.000000
0.789165 0.048902 0.000000
0.454838 0.089221 0.000000
0.638560 0.069184 0.000000
0.423817 0.101469 0.000000
0.150000 -0.075000 0.000000
0.150000 -0.050000 0.000000
0.150000 -0.025000 0.000000
0.150000 0.000000 0.000000
0.983590 0.156782 0.000000
0.969450 0.092471 0.000000
0.979545 0.284092 0.000000
0.943929 0.321246 0.000000
0.981248 0.060477 0.000000
0.921987 0.365455 0.000000
0.945203 0.078908 0.000000
0.925940 0.149104 0.000000
0.957371 0.058208 0.000000
0.947497 0.108554 0.000000
0.934424 0.032226 0.000000
0.803405 0.022430 0.000000
0.893324 0.022788 0.000000
0.912321 0.032802 0.000000
0.773384 0.025489 0.000000
0.684503 0.059028 0.000000
0.628635 0.053464 0.000000
0.706727 0.041895 0.000000
0.651063 0.055809 0.000000
0.548300 0.025850 0.000000
0.175000 -0.075000 0.000000
0.175000 -0.050000 0.000000
0.175000 -0.025000 0.000000
0.175000 0.000000 0.000000
0.747372 0.340516 0.000000
0.990955 0.120938 0.000000
0.994699 0.233472 0.000000
0.999486 0.134514 0.000000
1.004174 0.092803 0.000000
0.958318 0.311083 0.000000
0.991519 0.021772 0.000000
0.981913 0.173629 0.000000
0.930403 0.241559 0.000000
1.004134 0.040026 0.000000
0.962734 0.196936 0.000000
1.004577 0.208007 0.000000
0.903027 0.144575 0.000000
0.923120 0.091072 0.000000
0.886057 0.063999 0.000000
0.945654 0.192234 0.000000
0.931841 0.060335 0.000000
0.858638 0.092521 0.000000
0.771596 0.059244 0.000000
0.815434 0.067008 0.000000
0.200000 -0.075000 0.000000
0.200000 -0.050000 0.000000
0.200000 -0.025000 0.000000
0.200000 0.000000 0.000000
0.882853 0.755546 0.000000
0.988951 0.267189 0.000000
0.929663 0.494673 0.000000
0.988745 0.322855 0.000000
0.928989 0.377602 0.000000
0.931320 0.407807 0.000000
0.959918 0.426055 0.000000
0.999783 0.376963 0.000000
0.969959 0.298046 0.000000
0.903956 0.339061 0.000000
0.990687 0.351892 0.000000
0.972068 0.038225 0.000000
0.881612 0.324587 0.000000
0.955062 0.152193 0.000000
0.909761 0.121445 0.000000
0.954609 0.221653 0.000000
0.984249 0.244331 0.000000
0.946719 0.132036 0.000000
0.905705 0.056557 0.000000
0.864349 0.053079 0.000000
0.225000 -0.075000 0.000000
0.225000 -0.050000 0.000000
0.225000 -0.025000 0.000000
0.225000 0.000000 0.000000
0.954131 0.412544 0.000000
0.966398 1.172300 0.000000
0.949811 0.366501 0.000000
0.863915 0.400387 0.000000
0.762668 0.319513 0.000000
0.867695 0.456374 0.000000
0.947110 0.502875 0.000000
0.992671 0.438002 0.000000
0.988131 0.394114 0.000000
0.924044 0.424790 0.000000
0.988914 0.409563 0.000000
0.906046 0.415887 0.000000
0.752462 0.310284 0.000000
0.857259 0.297762 0.000000
0.946631 0.334004 0.000000
0.975222 0.344872 0.000000
0.898989 0.286765 0.000000
0.945919 0.168912 0.000000
0.902759 0.158347 0.000000
0.900753 0.109034 0.000000
0.250000 -0.075000 0.000000
0.250000 -0.050000 0.000000
0.250000 -0.025000 0.000000
0.250000 0.000000 0.000000
0.976968 1.009443 0.000000
0.864625 0.928193 0.000000
0.872114 0.533421 0.000000
0.920771 0.554841 0.000000
0.780281 1.030042 0.000000
0.952605 0.627606 0.000000
0.787466 0.897591 0.000000
0.855655 0.781282 0.000000
0.746694 0.480371 0.000000
0.957043 0.481703 0.000000
0.837288 0.320149 0.000000
0.898304 0.401359 0.000000
0.919317 0.454200 0.000000
0.676142 0.194398 0.000000
0.895112 0.375943 0.000000
0.842233 0.127812 0.000000
0.840944 0.349356 0.000000
1.003845 0.170270 0.000000
0.917946 0.238465 0.000000
0.970360 0.219859 0.000000
0.275000 -0.075000 0.000000
0.275000 -0.050000 0.000000
0.275000 -0.025000 0.000000
0.275000 0.000000 0.000000
0.300000 -0.075000 0.000000
0.300000 -0.050000 0.000000
0.300000 -0.025000 0.000000
0.300000 0.000000 0.000000
0.325000 -0.075000 0.000000
0.325000 -0.050000 0.000000
0.325000 -0.025000 0.000000
0.325000 0.000000 0.000000
0.350000 -0.075000 0.000000
0.350000 -0.050000 0.000000
0.350000 -0.025000 0.000000
0.350000 0.000000 0.000000
0.375000 -0.075000 0.000000
0.375000 -0.050000 0.000000
0.375000 -0.025000 0.000000
0.375000 0.000000 0.000000
0.400000 -0.075000 0.000000
0.400000 -0.050000 0.000000
0.400000 -0.025000 0.000000
0.400000 0.000000 0.000000
0.425000 -0.075000 0.000000
0.425000 -0.050000 0.000000
0.425000 -0.025000 0.000000
0.425000 0.000000 0.000000
0.450000 -0.075000 0.000000
0.450000 -0.050000 0.000000
0.450000 -0.025000 0.000000
0.450000 0.000000 0.000000
0.475000 -0.075000 0.000000
0.475000 -0.050000 0.000000
0.475000 -0.025000 0.000000
0.475000 0.000000 0.000000
0.500000 -0.075000 0.000000
0.500000 -0.050000 0.000000
0.500000 -0.025000 0.000000
0.500000 0.000000 0.000000
0.525000 -0.075000 0.000000
0.525000 -0.050000 0.000000
0.525000 -0.025000 0.000000
0.525000 0.000000 0.000000
0.550000 -0.075000 0.000000
0.550000 -0.050000 0.000000
0.550000 -0.025000 0.000000
0.550000 0.000000 0.000000
0.575000 -0.075000 0.000000
0.575000 -0.050000 0.000000
0.575000 -0.025000 0.000000
0.575000 0.000000 0.000000
0.600000 -0.075000 0.000000
0.600000 -0.050000 0.000000
0.600000 -0.025000 0.000000
0.600000 0.000000 0.000000
0.625000 -0.075000 0.000000
0.625000 -0.050000 0.000000
0.625000 -0.025000 0.000000
0.625000 0.000000 0.000000
0.650000 -0.075000 0.000000
0.650000 -0.050000 0.000000
0.650000 -0.025000 0.000000
0.650000 0.000000 0.000000
0.675000 -0.075000 0.000000
0.675000 -0.050000 0.000000
0.675000 -0.025000 0.000000
0.675000 0.000000 0.000000
0.700000 -0.075000 0.000000
0.700000 -0.050000 0.000000
0.700000 -0.025000 0.000000
0.700000 0.000000 0.000000
0.725000 -0.075000 0.000000
0.725000 -0.050000 0.000000
0.725000 -0.025000 0.000000
0.725000 0.000000 0.000000
0.750000 -0.075000 0.000000
0.750000 -0.050000 0.000000
0.750000 -0.025000 0.000000
0.750000 0.000000 0.000000
0.775000 -0.075000 0.000000
0.775000 -0.050000 0.000000
0.775000 -0.025000 0.000000
0.775000 0.000000 0.000000
0.800000 -0.075000 0.000000
0.800000 -0.050000 0.000000
0.800000 -0.025000 0.000000
0.800000 0.000000 0.000000
0.825000 -0.075000 0.000000
0.825000 -0.050000 0.000000
0.825000 -0.025000 0.000000
0.825000 0.000000 0.000000
0.850000 -0.075000 0.000000
0.850000 -0.050000 0.000000
0.850000 -0.025000 0.000000
0.850000 0.000000 0.000000
0.875000 -0.075000 0.000000
0.875000 -0.050000 0.000000
0.875000 -0.025000 0.000000
0.875000 0.000000 0.000000
0.900000 -0.075000 0.000000
0.900000 -0.050000 0.000000
0.900000 -0.025000 0.000000
0.900000 0.000000 0.000000
0.925000 -0.075000 0.000000
0.925000 -0.050000 0.000000
0.925000 -0.025000 0.000000
0.925000 0.000000 0.000000
0.950000 -0.075000 0.000000
0.950000 -0.050000 0.000000
0.950000 -0.025000 0.000000
0.950000 0.000000 0.000000
0.975000 -0.075000 0.000000
0.975000 -0.050000 0.000000
0.975000 -0.025000 0.000000
0.975000 0.000000 0.000000
1.000000 -0.075000 0.000000
1.000000 -0.050000 0.000000
1.000000 -0.025000 0.000000
1.000000 0.000000 0.000000
1.025000 -0.075000 0.000000
1.025000 -0.050000 0.000000
1.025000 -0.025000 0.000000
1.025000 0.000000 0.000000
1.025000 0.025000 0.000000
1.025000 0.050000 0.000000
1.025000 0.075000 0.000000
1.025000 0.100000 0.000000
1.025000 0.125000 0.000000
1.025000 0.150000 0.000000
1.025000 0.175000 0.000000
1.025000 0.200000 0.000000
1.025000 0.225000 0.000000
1.025000 0.250000 0.000000
1.025000 0.275000 0.000000
1.025000 0.300000 0.000000
1.025000 0.325000 0.000000
1.025000 0.350000 0.000000
1.025000 0.375000 0.000000
1.025000 0.400000 0.000000
1.025000 0.425000 0.000000
1.025000 0.450000 0.000000
1.025000 0.475000 0.000000
1.025000 0.500000 0.000000
1.025000 0.525000 0.000000
1.025000 0.550000 0.000000
1.025000 0.575000 0.000000
1.025000 0.600000 0.000000
1.050000 -0.075000 0.000000
1.050000 -0.050000 0.000000
1.050000 -0.025000 0.000000
1.050000 0.000000 0.000000
1.050000 0.025000 0.000000
1.050000 0.050000 0.000000
1.050000 0.075000 0.000000
1.050000 0.100000 0.000000
1.050000 0.125000 0.000000
1.050000 0.150000 0.000000
1.050000 0.175000 0.000000
1.050000 0.200000 0.000000
1.050000 0.225000 0.000000
1.050000 0.250000 0.000000
1.050000 0.275000 0.000000
1.050000 0.300000 0.000000
1.050000 0.325000 0.000000
1.050000 0.350000 0.000000
1.050000 0.375000 0.000000
1.050000 0.400000 0.000000
1.050000 0.425000 0.000000
1.050000 0.450000 0.000000
1.050000 0.475000 0.000000
1.050000 0.500000 0.000000
1.050000 0.525000 0.000000
1.050000 0.550000 0.000000
1.050000 0.575000 0.000000
1.050000 0.600000 0.000000
1.075000 -0.075000 0.000000
1.075000 -0.050000 0.000000
1.075000 -0.025000 0.000000
1.075000 0.000000 0.000000
1.075000 0.025000 0.000000
1.075000 0.050000 0.000000
1.075000 0.075000 0.000000
1.075000 0.100000 0.000000
1.075000 0.125000 0.000000
1.075000 0.150000 0.000000
1.075000 0.175000 0.000000
1.075000 0.200000 0.000000
1.075000 0.225000 0.000000
1.075000 0.250000 0.000000
1.075000 0.275000 0.000000
1.075000 0.300000 0.000000
1.075000 0.325000 0.000000
1.075000 0.350000 0.000000
1.075000 0.375000 0.000000
1.075000 0.400000 0.000000
1.075000 0.425000 0.000000
1.075000 0.450000 0.000000
1.075000 0.475000 0.000000
1.075000 0.500000 0.000000
1.075000 0.525000 0.000000
1.075000 0.550000 0.000000
1.075000 0.575000 0.000000
1.075000 0.600000 0.000000
1.100000 -0.075000 0.000000
1.100000 -0.050000 0.000000
1.100000 -0.025000 0.000000
1.100000 0.000000 0.000000
1.100000 0.025000 0.000000
1.100000 0.050000 0.000000
1.100000 0.075000 0.000000
1.100000 0.100000 0.000000
1.100000 0.125000 0.000000
1.100000 0.150000 0.000000
1.100000 0.175000 0.000000
1.100000 0.200000 0.000000
1.100000 0.225000 0.000000
1.100000 0.250000 0.000000
1.100000 0.275000 0.000000
1.100000 0.300000 0.000000
1.100000 0.325000 0.000000
1.100000 0.350000 0.000000
1.100000 0.375000 0.000000
1.100000 0.400000 0.000000
1.100000 0.425000 0.000000
1.100000 0.450000 0.000000
1.100000 0.475000 0.000000
1.100000 0.500000 0.000000
1.100000 0.525000 0.000000
1.100000 0.550000 0.000000
1.100000 0.575000 0.000000
1.100000 0.600000 0.000000
</DataArray>
</Points>
<PointData>
<DataArray NumberOfComponents='1' type='Int32' Name='ParticleType' format='ascii'>
3
3
3
3
3
3
3
3
3
3
3
3
3
3
3
3
3
3
3
3
3
3
3
3
3
3
2
2
3
3
3
3
3
3
3
3
3
3
3
3
3
3
3
3
3
3
3
3
3
3
3
3
3
3
2
2
3
3
2
2
2
2
2
2
2
2
2
2
2
2
2
2
2
2
2
2
2
2
2
2
2
2
2
2
3
3
2
2
2
2
2
2
2
2
2
2
2
2
2
2
2
2
2
2
2
2
2
2
2
2
2
2
3
3
2
2
0
0
0
0
0
0
0
0
0
0
0
0
0
0
0
0
0
0
0
0
3
3
2
2
0
0
0
0
0
0
0
0
0
0
0
0
0
0
0
0
0
0
0
0
3
3
2
2
0
0
0
0
0
0
0
0
0
0
0
0
0
0
0
0
0
0
0
0
3
3
2
2
0
0
0
0
0
0
0
0
0
0
0
0
0
0
0
0
0
0
0
0
3
3
2
2
0
0
0
0
0
0
0
0
0
0
0
0
0
0
0
0
0
0
0
0
3
3
2
2
0
0
0
0
0
0
0
0
0
0
0
0
0
0
0
0
0
0
0
0
3
3
2
2
0
0
0
0
0
0
0
0
0
0
0
0
0
0
0
0
0
0
0
0
3
3
2
2
0
0
0
0
0
0
0
0
0
0
0
0
0
0
0
0
0
0
0
0
3
3
2
2
0
0
0
0
0
0
0
0
0
0
0
0
0
0
0
0
0
0
0
0
3
3
2
2
0
0
0
0
0
0
0
0
0
0
0
0
0
0
0
0
0
0
0
0
3
3
2
2
3
3
2
2
3
3
2
2
3
3
2
2
3
3
2
2
3
3
2
2
3
3
2
2
3
3
2
2
3
3
2
2
3
3
2
2
3
3
2
2
3
3
2
2
3
3
2
2
3
3
2
2
3
3
2
2
3
3
2
2
3
3
2
2
3
3
2
2
3
3
2
2
3
3
2
2
3
3
2
2
3
3
2
2
3
3
2
2
3
3
2
2
3
3
2
2
3
3
2
2
3
3
2
2
3
3
2
2
3
3
2
2
3
3
2
2
3
3
2
2
2
2
2
2
2
2
2
2
2
2
2
2
2
2
2
2
2
2
2
2
2
2
2
2
3
3
2
2
2
2
2
2
2
2
2
2
2
2
2
2
2
2
2
2
2
2
2
2
2
2
2
2
3
3
3
3
3
3
3
3
3
3
3
3
3
3
3
3
3
3
3
3
3
3
3
3
3
3
2
2
3
3
3
3
3
3
3
3
3
3
3
3
3
3
3
3
3
3
3
3
3
3
3
3
3
3
2
2
</DataArray>
<DataArray NumberOfComponents='1' type='Float32' Name='Velocity' format='ascii'>
0.000000
0.000000
0.000000
0.000000
0.000000
0.000000
0.000000
0.000000
0.000000
0.000000
0.000000
0.000000
0.000000
0.000000
0.000000
0.000000
0.000000
0.000000
0.000000
0.000000
0.000000
0.000000
0.000000
0.000000
0.000000
0.000000
0.000000
0.000000
0.000000
0.000000
0.000000
0.000000
0.000000
0.000000
0.000000
0.000000
0.000000
0.000000
0.000000
0.000000
0.000000
0.000000
0.000000
0.000000
0.000000
0.000000
0.000000
0.000000
0.000000
0.000000
0.000000
0.000000
0.000000
0.000000
0.000000
0.000000
0.000000
0.000000
0.000000
0.000000
0.000000
0.000000
0.000000
0.000000
0.000000
0.000000
0.000000
0.000000
0.000000
0.000000
0.000000
0.000000
0.000000
0.000000
0.000000
0.000000
0.000000
0.000000
0.000000
0.000000
0.000000
0.000000
0.000000
0.000000
0.000000
0.000000
0.000000
0.000000
0.000000
0.000000
0.000000
0.000000
0.000000
0.000000
0.000000
0.000000
0.000000
0.000000
0.000000
0.000000
0.000000
0.000000
0.000000
0.000000
0.000000
0.000000
0.000000
0.000000
0.000000
0.000000
0.000000
0.000000
0.000000
0.000000
0.000000
0.000000
0.574305
0.276015
0.334134
0.301874
0.717288
0.396462
0.531660
0.468574
0.126539
0.318720
0.254259
0.334853
0.061123
0.106278
0.089574
0.086142
0.233423
0.541065
0.204687
0.234608
0.000000
0.000000
0.000000
0.000000
0.481235
0.805379
1.101508
0.696128
0.991084
1.375823
0.600886
0.934947
0.736049
0.400483
0.938890
0.485246
0.105274
0.802765
0.383585
0.399905
0.501662
0.308053
0.313014
0.232536
0.000000
0.000000
0.000000
0.000000
0.375090
0.748855
0.796232
0.682909
1.280943
1.348741
1.194274
1.176461
1.360345
1.318954
0.643755
0.663631
0.841634
0.574029
0.185243
0.571267
0.403741
0.754994
0.551272
0.568291
0.000000
0.000000
0.000000
0.000000
0.998324
0.705673
1.275708
0.775177
0.835354
1.087365
1.430397
1.306015
1.502436
1.215365
0.670660
0.646758
0.975894
1.460307
1.131303
0.313312
1.113785
1.322710
0.866714
0.912375
0.000000
0.000000
0.000000
0.000000
0.640507
1.373453
0.716071
0.429707
0.692011
0.963436
1.109090
1.279349
1.171733
1.423582
1.194766
1.568371
1.482844
1.394472
1.186178
0.910263
1.488470
1.211306
1.302749
1.099291
0.000000
0.000000
0.000000
0.000000
0.575349
0.662138
1.508926
0.853559
0.553002
0.855182
0.505970
0.891638
0.746491
0.837568
0.422447
1.383503
0.968920
0.685531
1.172977
1.370716
1.276708
1.248431
1.240283
0.835276
0.000000
0.000000
0.000000
0.000000
1.125588
0.726310
0.576111
1.039517
0.535121
0.823876
0.207211
0.802474
0.544610
0.161481
0.820952
0.816058
1.075045
1.575110
0.920550
0.881940
0.466657
1.523978
1.548680
1.754541
0.000000
0.000000
0.000000
0.000000
0.664440
0.659008
0.177455
0.760774
0.546262
0.489380
0.673542
0.419813
0.974048
0.424314
0.783462
0.240732
0.778614
1.101385
0.876669
0.838103
0.840831
1.312375
1.342871
1.031469
0.000000
0.000000
0.000000
0.000000
0.721286
1.604662
0.387772
0.609437
1.179646
0.523793
0.166585
0.633520
0.519219
0.380059
0.392346
0.451793
1.000489
0.690576
0.674231
0.742109
0.621568
1.102515
0.527011
0.604901
0.000000
0.000000
0.000000
0.000000
0.876617
0.980979
0.469085
0.330894
1.237056
0.396158
0.988116
0.715986
0.791337
0.153336
0.702440
0.538938
0.288523
1.487615
0.457259
1.072402
1.017991
0.278376
0.447672
0.799346
0.000000
0.000000
0.000000
0.000000
0.000000
0.000000
0.000000
0.000000
0.000000
0.000000
0.000000
0.000000
0.000000
0.000000
0.000000
0.000000
0.000000
0.000000
0.000000
0.000000
0.000000
0.000000
0.000000
0.000000
0.000000
0.000000
0.000000
0.000000
0.000000
0.000000
0.000000
0.000000
0.000000
0.000000
0.000000
0.000000
0.000000
0.000000
0.000000
0.000000
0.000000
0.000000
0.000000
0.000000
0.000000
0.000000
0.000000
0.000000
0.000000
0.000000
0.000000
0.000000
0.000000
0.000000
0.000000
0.000000
0.000000
0.000000
0.000000
0.000000
0.000000
0.000000
0.000000
0.000000
0.000000
0.000000
0.000000
0.000000
0.000000
0.000000
0.000000
0.000000
0.000000
0.000000
0.000000
0.000000
0.000000
0.000000
0.000000
0.000000
0.000000
0.000000
0.000000
0.000000
0.000000
0.000000
0.000000
0.000000
0.000000
0.000000
0.000000
0.000000
0.000000
0.000000
0.000000
0.000000
0.000000
0.000000
0.000000
0.000000
0.000000
0.000000
0.000000
0.000000
0.000000
0.000000
0.000000
0.000000
0.000000
0.000000
0.000000
0.000000
0.000000
0.000000
0.000000
0.000000
0.000000
0.000000
0.000000
0.000000
0.000000
0.000000
0.000000
0.000000
0.000000
0.000000
0.000000
0.000000
0.000000
0.000000
0.000000
0.000000
0.000000
0.000000
0.000000
0.000000
0.000000
0.000000
0.000000
0.000000
0.000000
0.000000
0.000000
0.000000
0.000000
0.000000
0.000000
0.000000
0.000000
0.000000
0.000000
0.000000
0.000000
0.000000
0.000000
0.000000
0.000000
0.000000
0.000000
0.000000
0.000000
0.000000
0.000000
0.000000
0.000000
0.000000
0.000000
0.000000
0.000000
0.000000
0.000000
0.000000
0.000000
0.000000
0.000000
0.000000
0.000000
0.000000
0.000000
0.000000
0.000000
0.000000
0.000000
0.000000
0.000000
0.000000
0.000000
0.000000
0.000000
0.000000
0.000000
0.000000
0.000000
0.000000
0.000000
0.000000
0.000000
0.000000
0.000000
0.000000
0.000000
0.000000
0.000000
0.000000
0.000000
0.000000
0.000000
0.000000
0.000000
0.000000
0.000000
0.000000
0.000000
0.000000
0.000000
0.000000
0.000000
0.000000
0.000000
0.000000
0.000000
0.000000
0.000000
0.000000
0.000000
0.000000
0.000000
0.000000
0.000000
0.000000
0.000000
0.000000
</DataArray>
<DataArray NumberOfComponents='1' type='Float32' Name='pressure' format='ascii'>
0.000000
0.000000
0.000000
0.000000
0.000000
0.000000
0.000000
0.000000
0.000000
0.000000
0.000000
0.000000
0.000000
0.000000
0.000000
0.000000
0.000000
0.000000
0.000000
0.000000
0.000000
0.000000
0.000000
0.000000
0.000000
0.000000
0.000000
0.000000
0.000000
0.000000
0.000000
0.000000
0.000000
0.000000
0.000000
0.000000
0.000000
0.000000
0.000000
0.000000
0.000000
0.000000
0.000000
0.000000
0.000000
0.000000
0.000000
0.000000
0.000000
0.000000
0.000000
0.000000
0.000000
0.000000
0.000000
0.000000
0.000000
0.000000
0.000000
0.000000
0.000000
0.000000
0.000000
0.000000
0.000000
0.000000
0.000000
0.000000
0.000000
0.000000
0.000000
0.000000
0.000000
0.000000
0.000000
0.000000
0.000000
0.000000
0.000000
0.000000
0.000000
0.000000
0.000000
0.000000
0.000000
0.000000
0.000000
0.000000
0.000000
0.000000
0.000000
0.000000
0.000000
0.000000
0.000000
0.000000
0.000000
0.000000
0.000000
0.000000
0.000000
0.000000
0.000000
0.000000
0.000000
0.000000
0.000000
0.000000
0.000000
0.000000
0.000000
0.000000
0.000000
0.000000
0.000000
0.000000
492.210815
833.138489
0.000000
555.419739
786.946472
205.697647
0.000000
1433.438354
826.848633
946.154480
763.608643
0.000000
0.000000
879.623108
0.000000
125.539055
335.718262
0.000000
0.000000
0.000000
0.000000
0.000000
61.914116
0.000000
638.549561
0.000000
573.819336
0.000000
0.000000
0.000000
0.000000
399.267151
87.079941
1814.845947
1283.088013
0.000000
0.000000
0.000000
0.000000
0.000000
879.604980
0.000000
0.000000
260.437103
0.000000
0.000000
1308.920776
985.204407
147.675003
1766.412720
874.610229
219.382736
0.000000
0.000000
0.000000
212.050049
0.000000
955.160706
863.012207
0.000000
0.000000
0.000000
0.000000
0.000000
0.000000
0.000000
0.000000
0.000000
0.000000
0.000000
1210.464478
1391.294922
2237.789551
0.000000
389.446106
2135.052246
0.000000
1441.058472
1440.755005
0.000000
0.000000
0.000000
1226.436279
937.594482
0.000000
0.000000
0.000000
0.000000
2525.236572
0.000000
0.000000
0.000000
0.000000
0.000000
0.000000
459.086121
2725.006836
2379.083984
3156.077393
3668.710449
3756.614502
2589.940674
0.000000
38.591423
1891.673340
0.000000
0.000000
972.475098
0.000000
3283.082520
0.000000
1145.099976
648.051636
0.000000
0.000000
0.000000
0.000000
0.000000
1102.772827
375.213776
1422.685547
0.000000
0.000000
0.000000
3954.688477
0.000000
2049.633057
0.000000
2144.495117
3316.911621
3186.146729
2284.222656
3472.675781
2105.552734
0.000000
0.000000
1201.117065
0.000000
0.000000
3137.792480
0.000000
0.000000
935.015686
881.319275
0.000000
0.000000
0.000000
988.413452
2198.391113
11.679291
4589.473633
0.000000
0.000000
2825.136475
0.000000
0.000000
0.000000
1092.715332
1289.847412
0.000000
2859.188477
0.000000
0.000000
0.000000
0.000000
0.000000
1410.150391
1837.342896
0.000000
0.000000
0.000000
0.000000
0.000000
0.000000
0.000000
0.000000
0.000000
0.000000
0.000000
2865.715332
0.000000
0.000000
0.000000
0.000000
0.000000
0.000000
2875.186279
1462.245239
0.000000
0.000000
35.433033
0.000000
0.000000
0.000000
0.000000
0.000000
0.000000
0.000000
0.000000
0.000000
0.000000
0.000000
0.000000
0.000000
0.000000
0.000000
25.568012
0.000000
0.000000
0.000000
0.000000
0.000000
0.000000
0.000000
1007.189697
2037.982178
0.000000
0.000000
0.000000
0.000000
0.000000
0.000000
0.000000
0.000000
0.000000
0.000000
0.000000
0.000000
0.000000
0.000000
0.000000
0.000000
0.000000
0.000000
0.000000
0.000000
0.000000
0.000000
0.000000
0.000000
0.000000
0.000000
0.000000
0.000000
0.000000
0.000000
0.000000
0.000000
0.000000
0.000000
0.000000
0.000000
0.000000
0.000000
0.000000
0.000000
0.000000
0.000000
1507.003174
1633.668091
0.000000
0.000000
526.621216
0.000000
0.000000
0.000000
2116.393555
306.175385
0.000000
0.000000
3224.466309
3354.047363
0.000000
0.000000
3874.104248
4689.538086
0.000000
0.000000
2589.454102
2747.592773
0.000000
0.000000
1755.202881
0.000000
0.000000
0.000000
3268.485596
619.086853
0.000000
0.000000
2877.406250
1954.138550
0.000000
0.000000
1663.840210
0.000000
0.000000
0.000000
2745.375977
422.706390
0.000000
0.000000
3176.038330
1212.927490
0.000000
0.000000
2938.788818
141.375443
0.000000
0.000000
3209.358154
468.208832
0.000000
0.000000
4608.762695
4697.960449
0.000000
0.000000
2504.284668
860.406555
0.000000
0.000000
3178.707275
2941.211914
0.000000
0.000000
1496.788452
1827.946289
0.000000
0.000000
1957.177368
1875.569336
0.000000
0.000000
1822.398315
2525.178223
0.000000
0.000000
2822.989990
2515.410645
0.000000
0.000000
1686.538330
0.000000
0.000000
0.000000
3976.708740
3748.465820
0.000000
0.000000
3728.000732
2308.601318
0.000000
0.000000
4671.142578
4003.522461
0.000000
0.000000
3890.618164
3635.196533
3065.390381
2090.792725
1657.811279
3520.401855
0.000000
0.000000
1910.396240
0.000000
0.000000
0.000000
0.000000
0.000000
0.000000
0.000000
0.000000
0.000000
0.000000
0.000000
0.000000
0.000000
0.000000
0.000000
0.000000
0.000000
0.000000
0.000000
3857.981445
3769.314209
4153.190430
4302.916016
3227.175781
3558.971924
1050.268799
924.437622
2295.855469
2176.655029
808.442627
0.000000
0.000000
0.000000
0.000000
0.000000
0.000000
0.000000
0.000000
0.000000
0.000000
0.000000
0.000000
0.000000
0.000000
0.000000
0.000000
0.000000
0.000000
0.000000
0.000000
0.000000
0.000000
0.000000
0.000000
0.000000
0.000000
0.000000
0.000000
0.000000
0.000000
0.000000
0.000000
0.000000
0.000000
0.000000
0.000000
0.000000
0.000000
0.000000
0.000000
0.000000
0.000000
0.000000
0.000000
0.000000
0.000000
0.000000
0.000000
0.000000
0.000000
0.000000
0.000000
0.000000
0.000000
0.000000
0.000000
0.000000
0.000000
0.000000
0.000000
0.000000
0.000000
0.000000
0.000000
0.000000
0.000000
0.000000
0.000000
0.000000
0.000000
0.000000
</DataArray>
</PointData>
<Cells>
<DataArray type='Int32' Name='connectivity' format='ascii'>
0
1
2
3
4
5
6
7
8
9
10
11
12
13
14
15
16
17
18
19
20
21
22
23
24
25
26
27
28
29
30
31
32
33
34
35
36
37
38
39
40
41
42
43
44
45
46
47
48
49
50
51
52
53
54
55
56
57
58
59
60
61
62
63
64
65
66
67
68
69
70
71
72
73
74
75
76
77
78
79
80
81
82
83
84
85
86
87
88
89
90
91
92
93
94
95
96
97
98
99
100
101
102
103
104
105
106
107
108
109
110
111
112
113
114
115
116
117
118
119
120
121
122
123
124
125
126
127
128
129
130
131
132
133
134
135
136
137
138
139
140
141
142
143
144
145
146
147
148
149
150
151
152
153
154
155
156
157
158
159
160
161
162
163
164
165
166
167
168
169
170
171
172
173
174
175
176
177
178
179
180
181
182
183
184
185
186
187
188
189
190
191
192
193
194
195
196
197
198
199
200
201
202
203
204
205
206
207
208
209
210
211
212
213
214
215
216
217
218
219
220
221
222
223
224
225
226
227
228
229
230
231
232
233
234
235
236
237
238
239
240
241
242
243
244
245
246
247
248
249
250
251
252
253
254
255
256
257
258
259
260
261
262
263
264
265
266
267
268
269
270
271
272
273
274
275
276
277
278
279
280
281
282
283
284
285
286
287
288
289
290
291
292
293
294
295
296
297
298
299
300
301
302
303
304
305
306
307
308
309
310
311
312
313
314
315
316
317
318
319
320
321
322
323
324
325
326
327
328
329
330
331
332
333
334
335
336
337
338