<?xml version='1.0' encoding='UTF-8'?>
<VTKFile xmlns='VTK' byte_order='LittleEndian' version='0.1' type='UnstructuredGrid'>
<UnstructuredGrid>
<Piece NumberOfCells='584' NumberOfPoints='584'>
<Points>
<DataArray NumberOfComponents='3' type='Float32' Name='Position' format='ascii'>
-0.075000 -0.075000 0.000000
-0.075000 -0.050000 0.000000
-0.075000 -0.025000 0.000000
-0.075000 0.000000 0.000000
-0.075000 0.025000 0.000000
-0.075000 0.050000 0.000000
-0.075000 0.075000 0.000000
-0.075000 0.100000 0.000000
-0.075000 0.125000 0.000000
-0.075000 0.150000 0.000000
-0.075000 0.175000 0.000000
-0.075000 0.200000 0.000000
-0.075000 0.225000 0.000000
-0.075000 0.250000 0.000000
-0.075000 0.275000 0.000000
-0.075000 0.300000 0.000000
-0.075000 0.325000 0.000000
-0.075000 0.350000 0.000000
-0.075000 0.375000 0.000000
-0.075000 0.400000 0.000000
-0.075000 0.425000 0.000000
-0.075000 0.450000 0.000000
-0.075000 0.475000 0.000000
-0.075000 0.500000 0.000000
-0.075000 0.525000 0.000000
-0.075000 0.550000 0.000000
-0.075000 0.575000 0.000000
-0.075000 0.600000 0.000000
-0.050000 -0.075000 0.000000
-0.050000 -0.050000 0.000000
-0.050000 -0.025000 0.000000
-0.050000 0.000000 0.000000
-0.050000 0.025000 0.000000
-0.050000 0.050000 0.000000
-0.050000 0.075000 0.000000
-0.050000 0.100000 0.000000
-0.050000 0.125000 0.000000
-0.050000 0.150000 0.000000
-0.050000 0.175000 0.000000
-0.050000 0.200000 0.000000
-0.050000 0.225000 0.000000
-0.050000 0.250000 0.000000
-0.050000 0.275000 0.000000
-0.050000 0.300000 0.000000
-0.050000 0.325000 0.000000
-0.050000 0.350000 0.000000
-0.050000 0.375000 0.000000
-0.050000 0.400000 0.000000
-0.050000 0.425000 0.000000
-0.050000 0.450000 0.000000
-0.050000 0.475000 0.000000
-0.050000 0.500000 0.000000
-0.050000 0.525000 0.000000
-0.050000 0.550000 0.000000
-0.050000 0.575000 0.000000
-0.050000 0.600000 0.000000
-0.025000 -0.075000 0.000000
-0.025000 -0.050000 0.000000
-0.025000 -0.025000 0.000000
-0.025000 0.000000 0.000000
-0.025000 0.025000 0.000000
-0.025000 0.050000 0.000000
-0.025000 0.075000 0.000000
-0.025000 0.100000 0.000000
-0.025000 0.125000 0.000000
-0.025000 0.150000 0.000000
-0.025000 0.175000 0.000000
-0.025000 0.200000 0.000000
-0.025000 0.225000 0.000000
-0.025000 0.250000 0.000000
-0.025000 0.275000 0.000000
-0.025000 0.300000 0.000000
-0.025000 0.325000 0.000000
-0.025000 0.350000 0.000000
-0.025000 0.375000 0.000000
-0.025000 0.400000 0.000000
-0.025000 0.425000 0.000000
-0.025000 0.450000 0.000000
-0.025000 0.475000 0.000000
-0.025000 0.500000 0.000000
-0.025000 0.525000 0.000000
-0.025000 0.550000 0.000000
-0.025000 0.575000 0.000000
-0.025000 0.600000 0.000000
0.000000 -0.075000 0.000000
0.000000 -0.050000 0.000000
0.000000 -0.025000 0.000000
0.000000 0.000000 0.000000
0.000000 0.025000 0.000000
0.000000 0.050000 0.000000
0.000000 0.075000 0.000000
0.000000 0.100000 0.000000
0.000000 0.125000 0.000000
0.000000 0.150000 0.000000
0.000000 0.175000 0.000000
0.000000 0.200000 0.000000
0.000000 0.225000 0.000000
0.000000 0.250000 0.000000
0.000000 0.275000 0.000000
0.000000 0.300000 0.000000
0.000000 0.325000 0.000000
0.000000 0.350000 0.000000
0.000000 0.375000 0.000000
0.000000 0.400000 0.000000
0.000000 0.425000 0.000000
0.000000 0.450000 0.000000
0.000000 0.475000 0.000000
0.000000 0.500000 0.000000
0.000000 0.525000 0.000000
0.000000 0.550000 0.000000
0.000000 0.575000 0.000000
0.000000 0.600000 0.000000
0.025000 -0.075000 0.000000
0.025000 -0.050000 0.000000
0.025000 -0.025000 0.000000
0.025000 0.000000 0.000000
0.217335 0.025760 0.000000
0.187844 0.021882 0.000000
0.157728 0.024077 0.000000
0.114883 0.026496 0.000000
0.284804 0.052542 0.000000
0.065253 0.023716 0.000000
0.364998 0.033505 0.000000
0.235491 0.027826 0.000000
0.134346 0.028833 0.000000
0.106217 0.049793 0.000000
0.180356 0.042289 0.000000
0.156729 0.049102 0.000000
0.088867 0.024313 0.000000
0.023969 0.022864 0.000000
0.031855 0.042788 0.000000
0.028959 0.068599 0.000000
0.074696 0.050195 0.000000
0.063818 0.078518 0.000000
0.032615 0.081854 0.000000
0.078283 0.075164 0.000000
0.050000 -0.075000 0.000000
0.050000 -0.050000 0.000000
0.050000 -0.025000 0.000000
0.050000 0.000000 0.000000
0.261204 0.025036 0.000000
0.326413 0.078046 0.000000
0.448272 0.059116 0.000000
0.425438 0.058268 0.000000
0.416994 0.079376 0.000000
0.467412 0.087466 0.000000
0.384346 0.049765 0.000000
0.552326 0.054315 0.000000
0.304067 0.024784 0.000000
0.323430 0.026463 0.000000
0.390989 0.069186 0.000000
0.312876 0.064462 0.000000
0.053355 0.043121 0.000000
0.345693 0.054175 0.000000
0.174121 0.082518 0.000000
0.213565 0.055641 0.000000
0.140123 0.066282 0.000000
0.184713 0.065457 0.000000
0.098434 0.078390 0.000000
0.113231 0.067007 0.000000
0.075000 -0.075000 0.000000
0.075000 -0.050000 0.000000
0.075000 -0.025000 0.000000
0.075000 0.000000 0.000000
0.278834 0.028577 0.000000
0.406870 0.043415 0.000000
0.419745 0.022993 0.000000
0.386515 0.021740 0.000000
0.599387 0.048242 0.000000
0.659184 0.021558 0.000000
0.685509 0.024244 0.000000
0.474586 0.066604 0.000000
0.616052 0.089984 0.000000
0.617360 0.039118 0.000000
0.457941 0.040314 0.000000
0.341277 0.130451 0.000000
0.348036 0.082476 0.000000
0.292142 0.065300 0.000000
0.261391 0.077287 0.000000
0.208557 0.079268 0.000000
0.230421 0.068267 0.000000
0.364239 0.079937 0.000000
0.306513 0.090303 0.000000
0.152566 0.077627 0.000000
0.100000 -0.075000 0.000000
0.100000 -0.050000 0.000000
0.100000 -0.025000 0.000000
0.100000 0.000000 0.000000
0.477891 0.024283 0.000000
0.444406 0.024410 0.000000
0.638717 0.032345 0.000000
0.864606 0.024050 0.000000
0.346846 0.024608 0.000000
0.765658 0.022659 0.000000
0.785103 0.044890 0.000000
0.752022 0.068109 0.000000
0.703207 0.034048 0.000000
0.728581 0.021458 0.000000
0.495433 0.036707 0.000000
0.513975 0.025581 0.000000
0.587952 0.076656 0.000000
0.636239 0.060800 0.000000
0.519546 0.073840 0.000000
0.238211 0.054720 0.000000
0.527518 0.052368 0.000000
0.546167 0.070148 0.000000
0.406672 0.096503 0.000000
0.393562 0.096422 0.000000
0.125000 -0.075000 0.000000
0.125000 -0.050000 0.000000
0.125000 -0.025000 0.000000
0.125000 0.000000 0.000000
0.882798 0.030786 0.000000
0.756456 0.041197 0.000000
1.004379 0.081524 0.000000
0.960692 0.021495 0.000000
0.971036 0.131503 0.000000
0.543478 0.026594 0.000000
0.862387 0.064991 0.000000
0.920676 0.096156 0.000000
0.842951 0.036468 0.000000
0.769626 0.066162 0.000000
0.889922 0.089081 0.000000
0.835640 0.061103 0.000000
0.710672 0.072214 0.000000
0.580538 0.039578 0.000000
0.501319 0.057816 0.000000
0.601015 0.021743 0.000000
0.816976 0.048425 0.000000
0.481778 0.086488 0.000000
0.665783 0.074113 0.000000
0.442992 0.089239 0.000000
0.150000 -0.075000 0.000000
0.150000 -0.050000 0.000000
0.150000 -0.025000 0.000000
0.150000 0.000000 0.000000
0.980204 0.168480 0.000000
0.978945 0.096994 0.000000
0.979874 0.308605 0.000000
0.933560 0.332775 0.000000
0.984645 0.070881 0.000000
0.911876 0.377213 0.000000
0.952638 0.087355 0.000000
0.918085 0.163473 0.000000
0.965239 0.064530 0.000000
0.955418 0.122540 0.000000
0.941242 0.039526 0.000000
0.823776 0.021156 0.000000
0.907270 0.022454 0.000000
0.922397 0.034420 0.000000
0.796604 0.026453 0.000000
0.713113 0.058302 0.000000
0.654660 0.052872 0.000000
0.730639 0.042304 0.000000
0.676263 0.052251 0.000000
0.564780 0.025376 0.000000
0.175000 -0.075000 0.000000
0.175000 -0.050000 0.000000
0.175000 -0.025000 0.000000
0.175000 0.000000 0.000000
0.725321 0.333928 0.000000
0.995253 0.130407 0.000000
0.992192 0.243322 0.000000
0.998146 0.153768 0.000000
0.996450 0.109517 0.000000
0.950307 0.326252 0.000000
0.989112 0.023769 0.000000
0.976783 0.192510 0.000000
0.923606 0.248069 0.000000
1.004952 0.040882 0.000000
0.968015 0.208890 0.000000
1.006451 0.220530 0.000000
0.893318 0.157486 0.000000
0.944517 0.107260 0.000000
0.900305 0.064476 0.000000
0.946928 0.207734 0.000000
0.939971 0.061029 0.000000
0.886130 0.103789 0.000000
0.802367 0.061287 0.000000
0.849419 0.072443 0.000000
0.200000 -0.075000 0.000000
0.200000 -0.050000 0.000000
0.200000 -0.025000 0.000000
0.200000 0.000000 0.000000
0.875985 0.764864 0.000000
0.978212 0.274175 0.000000
0.926129 0.492289 0.000000
0.988502 0.335999 0.000000
0.924018 0.385282 0.000000
0.929606 0.415385 0.000000
0.959805 0.437467 0.000000
0.995203 0.383229 0.000000
0.967133 0.315002 0.000000
0.896551 0.332834 0.000000
0.991409 0.365487 0.000000
0.974247 0.041139 0.000000
0.866372 0.319330 0.000000
0.949028 0.172177 0.000000
0.921001 0.132967 0.000000
0.955025 0.236333 0.000000
0.982772 0.261669 0.000000
0.952633 0.156181 0.000000
0.920384 0.076974 0.000000
0.884207 0.055063 0.000000
0.225000 -0.075000 0.000000
0.225000 -0.050000 0.000000
0.225000 -0.025000 0.000000
0.225000 0.000000 0.000000
0.947081 0.423071 0.000000
0.965051 1.202307 0.000000
0.950441 0.372240 0.000000
0.856760 0.388461 0.000000
0.739080 0.317942 0.000000
0.859398 0.447920 0.000000
0.944098 0.502240 0.000000
0.993182 0.448604 0.000000
0.984941 0.402115 0.000000
0.917670 0.426872 0.000000
0.988165 0.415322 0.000000
0.897032 0.414450 0.000000
0.733939 0.300656 0.000000
0.848007 0.285449 0.000000
0.939890 0.344188 0.000000
0.978418 0.355027 0.000000
0.887128 0.288428 0.000000
0.934135 0.189319 0.000000
0.902173 0.171179 0.000000
0.902571 0.119518 0.000000
0.250000 -0.075000 0.000000
0.250000 -0.050000 0.000000
0.250000 -0.025000 0.000000
0.250000 0.000000 0.000000
0.974881 1.024793 0.000000
0.856919 0.944178 0.000000
0.862743 0.531818 0.000000
0.915106 0.556203 0.000000
0.766608 1.048604 0.000000
0.946691 0.630821 0.000000
0.775492 0.911255 0.000000
0.845457 0.789276 0.000000
0.732136 0.472105 0.000000
0.954104 0.480519 0.000000
0.825894 0.309874 0.000000
0.888762 0.404313 0.000000
0.913661 0.453284 0.000000
0.655471 0.170942 0.000000
0.885975 0.373499 0.000000
0.831663 0.107093 0.000000
0.821129 0.351974 0.000000
1.000358 0.174972 0.000000
0.910883 0.241910 0.000000
0.975651 0.232361 0.000000
0.275000 -0.075000 0.000000
0.275000 -0.050000 0.000000
0.275000 -0.025000 0.000000
0.275000 0.000000 0.000000
0.300000 -0.075000 0.000000
0.300000 -0.050000 0.000000
0.300000 -0.025000 0.000000
0.300000 0.000000 0.000000
0.325000 -0.075000 0.000000
0.325000 -0.050000 0.000000
0.325000 -0.025000 0.000000
0.325000 0.000000 0.000000
0.350000 -0.075000 0.000000
0.350000 -0.050000 0.000000
0.350000 -0.025000 0.000000
0.350000 0.000000 0.000000
0.375000 -0.075000 0.000000
0.375000 -0.050000 0.000000
0.375000 -0.025000 0.000000
0.375000 0.000000 0.000000
0.400000 -0.075000 0.000000
0.400000 -0.050000 0.000000
0.400000 -0.025000 0.000000
0.400000 0.000000 0.000000
0.425000 -0.075000 0.000000
0.425000 -0.050000 0.000000
0.425000 -0.025000 0.000000
0.425000 0.000000 0.000000
0.450000 -0.075000 0.000000
0.450000 -0.050000 0.000000
0.450000 -0.025000 0.000000
0.450000 0.000000 0.000000
0.475000 -0.075000 0.000000
0.475000 -0.050000 0.000000
0.475000 -0.025000 0.000000
0.475000 0.000000 0.000000
0.500000 -0.075000 0.000000
0.500000 -0.050000 0.000000
0.500000 -0.025000 0.000000
0.500000 0.000000 0.000000
0.525000 -0.075000 0.000000
0.525000 -0.050000 0.000000
0.525000 -0.025000 0.000000
0.525000 0.000000 0.000000
0.550000 -0.075000 0.000000
0.550000 -0.050000 0.000000
0.550000 -0.025000 0.000000
0.550000 0.000000 0.000000
0.575000 -0.075000 0.000000
0.575000 -0.050000 0.000000
0.575000 -0.025000 0.000000
0.575000 0.000000 0.000000
0.600000 -0.075000 0.000000
0.600000 -0.050000 0.000000
0.600000 -0.025000 0.000000
0.600000 0.000000 0.000000
0.625000 -0.075000 0.000000
0.625000 -0.050000 0.000000
0.625000 -0.025000 0.000000
0.625000 0.000000 0.000000
0.650000 -0.075000 0.000000
0.650000 -0.050000 0.000000
0.650000 -0.025000 0.000000
0.650000 0.000000 0.000000
0.675000 -0.075000 0.000000
0.675000 -0.050000 0.000000
0.675000 -0.025000 0.000000
0.675000 0.000000 0.000000
0.700000 -0.075000 0.000000
0.700000 -0.050000 0.000000
0.700000 -0.025000 0.000000
0.700000 0.000000 0.000000
0.725000 -0.075000 0.000000
0.725000 -0.050000 0.000000
0.725000 -0.025000 0.000000
0.725000 0.000000 0.000000
0.750000 -0.075000 0.000000
0.750000 -0.050000 0.000000
0.750000 -0.025000 0.000000
0.750000 0.000000 0.000000
0.775000 -0.075000 0.000000
0.775000 -0.050000 0.000000
0.775000 -0.025000 0.000000
0.775000 0.000000 0.000000
0.800000 -0.075000 0.000000
0.800000 -0.050000 0.000000
0.800000 -0.025000 0.000000
0.800000 0.000000 0.000000
0.825000 -0.075000 0.000000
0.825000 -0.050000 0.000000
0.825000 -0.025000 0.000000
0.825000 0.000000 0.000000
0.850000 -0.075000 0.000000
0.850000 -0.050000 0.000000
0.850000 -0.025000 0.000000
0.850000 0.000000 0.000000
0.875000 -0.075000 0.000000
0.875000 -0.050000 0.000000
0.875000 -0.025000 0.000000
0.875000 0.000000 0.000000
0.900000 -0.075000 0.000000
0.900000 -0.050000 0.000000
0.900000 -0.025000 0.000000
0.900000 0.000000 0.000000
0.925000 -0.075000 0.000000
0.925000 -0.050000 0.000000
0.925000 -0.025000 0.000000
0.925000 0.000000 0.000000
0.950000 -0.075000 0.000000
0.950000 -0.050000 0.000000
0.950000 -0.025000 0.000000
0.950000 0.000000 0.000000
0.975000 -0.075000 0.000000
0.975000 -0.050000 0.000000
0.975000 -0.025000 0.000000
0.975000 0.000000 0.000000
1.000000 -0.075000 0.000000
1.000000 -0.050000 0.000000
1.000000 -0.025000 0.000000
1.000000 0.000000 0.000000
1.025000 -0.075000 0.000000
1.025000 -0.050000 0.000000
1.025000 -0.025000 0.000000
1.025000 0.000000 0.000000
1.025000 0.025000 0.000000
1.025000 0.050000 0.000000
1.025000 0.075000 0.000000
1.025000 0.100000 0.000000
1.025000 0.125000 0.000000
1.025000 0.150000 0.000000
1.025000 0.175000 0.000000
1.025000 0.200000 0.000000
1.025000 0.225000 0.000000
1.025000 0.250000 0.000000
1.025000 0.275000 0.000000
1.025000 0.300000 0.000000
1.025000 0.325000 0.000000
1.025000 0.350000 0.000000
1.025000 0.375000 0.000000
1.025000 0.400000 0.000000
1.025000 0.425000 0.000000
1.025000 0.450000 0.000000
1.025000 0.475000 0.000000
1.025000 0.500000 0.000000
1.025000 0.525000 0.000000
1.025000 0.550000 0.000000
1.025000 0.575000 0.000000
1.025000 0.600000 0.000000
1.050000 -0.075000 0.000000
1.050000 -0.050000 0.000000
1.050000 -0.025000 0.000000
1.050000 0.000000 0.000000
1.050000 0.025000 0.000000
1.050000 0.050000 0.000000
1.050000 0.075000 0.000000
1.050000 0.100000 0.000000
1.050000 0.125000 0.000000
1.050000 0.150000 0.000000
1.050000 0.175000 0.000000
1.050000 0.200000 0.000000
1.050000 0.225000 0.000000
1.050000 0.250000 0.000000
1.050000 0.275000 0.000000
1.050000 0.300000 0.000000
1.050000 0.325000 0.000000
1.050000 0.350000 0.000000
1.050000 0.375000 0.000000
1.050000 0.400000 0.000000
1.050000 0.425000 0.000000
1.050000 0.450000 0.000000
1.050000 0.475000 0.000000
1.050000 0.500000 0.000000
1.050000 0.525000 0.000000
1.050000 0.550000 0.000000
1.050000 0.575000 0.000000
1.050000 0.600000 0.000000
1.075000 -0.075000 0.000000
1.075000 -0.050000 0.000000
1.075000 -0.025000 0.000000
1.075000 0.000000 0.000000
1.075000 0.025000 0.000000
1.075000 0.050000 0.000000
1.075000 0.075000 0.000000
1.075000 0.100000 0.000000
1.075000 0.125000 0.000000
1.075000 0.150000 0.000000
1.075000 0.175000 0.000000
1.075000 0.200000 0.000000
1.075000 0.225000 0.000000
1.075000 0.250000 0.000000
1.075000 0.275000 0.000000
1.075000 0.300000 0.000000
1.075000 0.325000 0.000000
1.075000 0.350000 0.000000
1.075000 0.375000 0.000000
1.075000 0.400000 0.000000
1.075000 0.425000 0.000000
1.075000 0.450000 0.000000
1.075000 0.475000 0.000000
1.075000 0.500000 0.000000
1.075000 0.525000 0.000000
1.075000 0.550000 0.000000
1.075000 0.575000 0.000000
1.075000 0.600000 0.000000
1.100000 -0.075000 0.000000
1.100000 -0.050000 0.000000
1.100000 -0.025000 0.000000
1.100000 0.000000 0.000000
1.100000 0.025000 0.000000
1.100000 0.050000 0.000000
1.100000 0.075000 0.000000
1.100000 0.100000 0.000000
1.100000 0.125000 0.000000
1.100000 0.150000 0.000000
1.100000 0.175000 0.000000
1.100000 0.200000 0.000000
1.100000 0.225000 0.000000
1.100000 0.250000 0.000000
1.100000 0.275000 0.000000
1.100000 0.300000 0.000000
1.100000 0.325000 0.000000
1.100000 0.350000 0.000000
1.100000 0.375000 0.000000
1.100000 0.400000 0.000000
1.100000 0.425000 0.000000
1.100000 0.450000 0.000000
1.100000 0.475000 0.000000
1.100000 0.500000 0.000000
1.100000 0.525000 0.000000
1.100000 0.550000 0.000000
1.100000 0.575000 0.000000
1.100000 0.600000 0.000000
</DataArray>
</Points>
<PointData>
<DataArray NumberOfComponents='1' type='Int32' Name='ParticleType' format='ascii'>
3
3
3
3
3
3
3
3
3
3
3
3
3
3
3
3
3
3
3
3
3
3
3
3
3
3
2
2
3
3
3
3
3
3
3
3
3
3
3
3
3
3
3
3
3
3
3
3
3
3
3
3
3
3
2
2
3
3
2
2
2
2
2
2
2
2
2
2
2
2
2
2
2
2
2
2
2
2
2
2
2
2
2
2
3
3
2
2
2
2
2
2
2
2
2
2
2
2
2
2
2
2
2
2
2
2
2
2
2
2
2
2
3
3
2
2
0
0
0
0
0
0
0
0
0
0
0
0
0
0
0
0
0
0
0
0
3
3
2
2
0
0
0
0
0
0
0
0
0
0
0
0
0
0
0
0
0
0
0
0
3
3
2
2
0
0
0
0
0
0
0
0
0
0
0
0
0
0
0
0
0
0
0
0
3
3
2
2
0
0
0
0
0
0
0
0
0
0
0
0
0
0
0
0
0
0
0
0
3
3
2
2
0
0
0
0
0
0
0
0
0
0
0
0
0
0
0
0
0
0
0
0
3
3
2
2
0
0
0
0
0
0
0
0
0
0
0
0
0
0
0
0
0
0
0
0
3
3
2
2
0
0
0
0
0
0
0
0
0
0
0
0
0
0
0
0
0
0
0
0
3
3
2
2
0
0
0
0
0
0
0
0
0
0
0
0
0
0
0
0
0
0
0
0
3
3
2
2
0
0
0
0
0
0
0
0
0
0
0
0
0
0
0
0
0
0
0
0
3
3
2
2
0
0
0
0
0
0
0
0
0
0
0
0
0
0
0
0
0
0
0
0
3
3
2
2
3
3
2
2
3
3
2
2
3
3
2
2
3
3
2
2
3
3
2
2
3
3
2
2
3
3
2
2
3
3
2
2
3
3
2
2
3
3
2
2
3
3
2
2
3
3
2
2
3
3
2
2
3
3
2
2
3
3
2
2
3
3
2
2
3
3
2
2
3
3
2
2
3
3
2
2
3
3
2
2
3
3
2
2
3
3
2
2
3
3
2
2
3
3
2
2
3
3
2
2
3
3
2
2
3
3
2
2
3
3
2
2
3
3
2
2
3
3
2
2
2
2
2
2
2
2
2
2
2
2
2
2
2
2
2
2
2
2
2
2
2
2
2
2
3
3
2
2
2
2
2
2
2
2
2
2
2
2
2
2
2
2
2
2
2
2
2
2
2
2
2
2
3
3
3
3
3
3
3
3
3
3
3
3
3
3
3
3
3
3
3
3
3
3
3
3
3
3
2
2
3
3
3
3
3
3
3
3
3
3
3
3
3
3
3
3
3
3
3
3
3
3
3
3
3
3
2
2
</DataArray>
<DataArray NumberOfComponents='1' type='Float32' Name='Velocity' format='ascii'>
0.000000
0.000000
0.000000
0.000000
0.000000
0.000000
0.000000
0.000000
0.000000
0.000000
0.000000
0.000000
0.000000
0.000000
0.000000
0.000000
0.000000
0.000000
0.000000
0.000000
0.000000
0.000000
0.000000
0.000000
0.000000
0.000000
0.000000
0.000000
0.000000
0.000000
0.000000
0.000000
0.000000
0.000000
0.000000
0.000000
0.000000
0.000000
0.000000
0.000000
0.000000
0.000000
0.000000
0.000000
0.000000
0.000000
0.000000
0.000000
0.000000
0.000000
0.000000
0.000000
0.000000
0.000000
0.000000
0.000000
0.000000
0.000000
0.000000
0.000000
0.000000
0.000000
0.000000
0.000000
0.000000
0.000000
0.000000
0.000000
0.000000
0.000000
0.000000
0.000000
0.000000
0.000000
0.000000
0.000000
0.000000
0.000000
0.000000
0.000000
0.000000
0.000000
0.000000
0.000000
0.000000
0.000000
0.000000
0.000000
0.000000
0.000000
0.000000
0.000000
0.000000
0.000000
0.000000
0.000000
0.000000
0.000000
0.000000
0.000000
0.000000
0.000000
0.000000
0.000000
0.000000
0.000000
0.000000
0.000000
0.000000
0.000000
0.000000
0.000000
0.000000
0.000000
0.000000
0.000000
0.491105
0.342678
0.395427
0.251934
0.639730
0.229471
0.611315
0.511034
0.133768
0.315637
0.328864
0.438257
0.217477
0.136638
0.020591
0.240516
0.316401
0.482690
0.244421
0.205156
0.000000
0.000000
0.000000
0.000000
0.560762
0.776910
0.939044
0.745240
1.159786
1.223473
0.518940
0.930110
0.397598
0.620803
0.907202
0.522081
0.201515
0.739676
0.463146
0.349202
0.386943
0.471152
0.420222
0.043910
0.000000
0.000000
0.000000
0.000000
0.418293
0.649832
0.686435
0.897127
1.122675
1.238805
0.934537
1.293685
1.404042
1.141517
0.751238
0.631040
0.896071
0.753926
0.099273
0.589822
0.310533
0.661830
0.705106
0.574112
0.000000
0.000000
0.000000
0.000000
0.685007
0.954915
1.182922
0.761573
0.431601
1.209568
1.650983
1.268389
1.658523
1.300261
0.859153
1.029063
0.983218
1.271638
1.046794
0.429092
1.178734
1.536629
0.855736
0.888251
0.000000
0.000000
0.000000
0.000000
0.532049
1.264442
0.280495
0.209328
1.081593
0.988542
0.827379
1.091516
0.955436
1.481232
1.116906
1.560908
1.393085
1.422435
1.171262
0.695230
1.310744
1.404099
1.424163
1.172628
0.000000
0.000000
0.000000
0.000000
0.846476
0.128859
1.062490
0.703254
0.565174
0.708453
0.478132
0.746701
0.272302
0.846105
0.662658
0.834860
0.583747
0.402640
1.064676
1.509059
1.350957
1.182526
1.269308
0.820156
0.000000
0.000000
0.000000
0.000000
1.180736
0.551033
0.507822
1.187844
0.967333
0.822733
0.141205
0.796790
0.412763
0.278432
0.472541
0.475222
0.718634
1.109671
0.729784
0.670014
0.330391
1.443612
1.395149
1.365298
0.000000
0.000000
0.000000
0.000000
0.506875
0.797956
0.276200
0.501151
0.383379
0.298383
0.477544
0.500236
0.763038
0.548997
0.587784
0.317997
0.841033
0.967927
0.743045
0.745476
0.593470
1.184574
1.143829
1.031290
0.000000
0.000000
0.000000
0.000000
0.558555
1.408858
0.202417
0.776676
1.191820
0.661920
0.195613
0.437741
0.371809
0.318910
0.199602
0.479951
1.089847
0.846349
0.546355
0.251192
0.593146
1.164984
0.573643
0.490259
0.000000
0.000000
0.000000
0.000000
0.682410
0.804423
0.499541
0.284384
1.079152
0.303338
0.840621
0.595003
0.886742
0.211643
0.832410
0.480233
0.315094
1.634264
0.505047
1.244808
0.991495
0.511589
0.361903
0.671646
0.000000
0.000000
0.000000
0.000000
0.000000
0.000000
0.000000
0.000000
0.000000
0.000000
0.000000
0.000000
0.000000
0.000000
0.000000
0.000000
0.000000
0.000000
0.000000
0.000000
0.000000
0.000000
0.000000
0.000000
0.000000
0.000000
0.000000
0.000000
0.000000
0.000000
0.000000
0.000000
0.000000
0.000000
0.000000
0.000000
0.000000
0.000000
0.000000
0.000000
0.000000
0.000000
0.000000
0.000000
0.000000
0.000000
0.000000
0.000000
0.000000
0.000000
0.000000
0.000000
0.000000
0.000000
0.000000
0.000000
0.000000
0.000000
0.000000
0.000000
0.000000
0.000000
0.000000
0.000000
0.000000
0.000000
0.000000
0.000000
0.000000
0.000000
0.000000
0.000000
0.000000
0.000000
0.000000
0.000000
0.000000
0.000000
0.000000
0.000000
0.000000
0.000000
0.000000
0.000000
0.000000
0.000000
0.000000
0.000000
0.000000
0.000000
0.000000
0.000000
0.000000
0.000000
0.000000
0.000000
0.000000
0.000000
0.000000
0.000000
0.000000
0.000000
0.000000
0.000000
0.000000
0.000000
0.000000
0.000000
0.000000
0.000000
0.000000
0.000000
0.000000
0.000000
0.000000
0.000000
0.000000
0.000000
0.000000
0.000000
0.000000
0.000000
0.000000
0.000000
0.000000
0.000000
0.000000
0.000000
0.000000
0.000000
0.000000
0.000000
0.000000
0.000000
0.000000
0.000000
0.000000
0.000000
0.000000
0.000000
0.000000
0.000000
0.000000
0.000000
0.000000
0.000000
0.000000
0.000000
0.000000
0.000000
0.000000
0.000000
0.000000
0.000000
0.000000
0.000000
0.000000
0.000000
0.000000
0.000000
0.000000
0.000000
0.000000
0.000000
0.000000
0.000000
0.000000
0.000000
0.000000
0.000000
0.000000
0.000000
0.000000
0.000000
0.000000
0.000000
0.000000
0.000000
0.000000
0.000000
0.000000
0.000000
0.000000
0.000000
0.000000
0.000000
0.000000
0.000000
0.000000
0.000000
0.000000
0.000000
0.000000
0.000000
0.000000
0.000000
0.000000
0.000000
0.000000
0.000000
0.000000
0.000000
0.000000
0.000000
0.000000
0.000000
0.000000
0.000000
0.000000
0.000000
0.000000
0.000000
0.000000
0.000000
0.000000
0.000000
0.000000
0.000000
0.000000
0.000000
0.000000
0.000000
0.000000
0.000000
0.000000
0.000000
0.000000
0.000000
0.000000
0.000000
0.000000
0.000000
</DataArray>
<DataArray NumberOfComponents='1' type='Float32' Name='pressure' format='ascii'>
0.000000
0.000000
0.000000
0.000000
0.000000
0.000000
0.000000
0.000000
0.000000
0.000000
0.000000
0.000000
0.000000
0.000000
0.000000
0.000000
0.000000
0.000000
0.000000
0.000000
0.000000
0.000000
0.000000
0.000000
0.000000
0.000000
0.000000
0.000000
0.000000
0.000000
0.000000
0.000000
0.000000
0.000000
0.000000
0.000000
0.000000
0.000000
0.000000
0.000000
0.000000
0.000000
0.000000
0.000000
0.000000
0.000000
0.000000
0.000000
0.000000
0.000000
0.000000
0.000000
0.000000
0.000000
0.000000
0.000000
0.000000
0.000000
1388.158447
1152.916138
858.284302
0.000000
0.000000
0.000000
0.000000
0.000000
0.000000
0.000000
0.000000
0.000000
0.000000
0.000000
0.000000
0.000000
0.000000
0.000000
0.000000
0.000000
0.000000
0.000000
0.000000
0.000000
0.000000
0.000000
0.000000
0.000000
1416.955933
2308.858643
511.542084
0.000000
0.000000
0.000000
0.000000
0.000000
0.000000
0.000000
0.000000
0.000000
0.000000
0.000000
0.000000
0.000000
0.000000
0.000000
0.000000
0.000000
0.000000
0.000000
0.000000
0.000000
0.000000
0.000000
0.000000
0.000000
1914.522217
1133.624268
472.419342
15.453302
1076.482300
1265.165161
0.000000
682.262512
134.420670
991.096924
508.909088
655.131104
206.276184
1087.521484
394.938751
479.610474
0.000000
464.599152
1012.135132
0.000000
0.000000
424.130707
0.000000
0.000000
675.319763
0.000000
0.000000
0.000000
816.819641
1383.654907
730.393005
0.000000
1031.922729
0.000000
0.000000
0.000000
1255.041138
0.000000
960.304993
0.000000
0.000000
216.054886
0.000000
0.000000
0.000000
0.000000
0.000000
0.000000
1370.013062
1200.245728
368.829834
606.552673
0.000000
1250.991455
0.000000
2470.187256
25.068460
827.946289
0.000000
987.606445
697.587585
0.000000
0.000000
1152.024048
0.000000
0.000000
0.000000
0.000000
0.000000
0.000000
0.000000
0.000000
648.770508
1238.403564
0.000000
667.273438
1365.071899
1931.493164
122.804543
2305.281250
1689.311768
0.000000
0.000000
2336.641357
1047.255249
0.000000
0.000000
0.000000
0.000000
0.000000
0.000000
0.000000
0.000000
0.000000
0.000000
0.000000
93.105537
437.324677
2311.162354
1261.419678
2659.403320
3066.339111
342.060333
0.000000
6332.242676
2215.472656
2543.123779
0.000000
366.199341
610.306396
0.000000
0.000000
0.000000
828.667542
2930.760986
0.000000
0.000000
0.000000
0.000000
0.000000
1202.876221
1261.275513
599.212891
2567.717285
0.000000
0.000000
2036.306030
0.000000
1306.471436
0.000000
3460.518311
630.739441
2202.891846
3163.354004
2338.849121
1897.046387
2103.110107
0.000000
0.000000
460.690094
0.000000
367.974487
0.000000
0.000000
1911.390991
1887.453735
0.000000
2666.452393
0.000000
3731.712646
3864.572998
0.000000
3080.105469
0.000000
0.000000
375.323120
2463.035889
0.000000
0.000000
1242.697388
1793.784058
0.000000
1331.320557
0.000000
0.000000
792.847778
0.000000
0.000000
1636.537720
1365.407104
0.000000
0.000000
0.000000
0.000000
0.000000
0.000000
0.000000
0.000000
0.000000
0.000000
36.536812
1017.294800
0.000000
0.000000
0.000000
0.000000
0.000000
0.000000
4000.850586
2640.862549
0.000000
0.000000
210.475662
678.985779
0.000000
0.000000
0.000000
0.000000
0.000000
0.000000
0.000000
0.000000
0.000000
0.000000
0.000000
0.000000
0.000000
0.000000
0.000000
0.000000
0.000000
0.000000
0.000000
0.000000
0.000000
0.000000
0.000000
437.569275
0.000000
0.000000
0.000000
0.000000
0.000000
0.000000
0.000000
0.000000
0.000000
0.000000
0.000000
0.000000
0.000000
0.000000
0.000000
0.000000
0.000000
0.000000
0.000000
1440.646606
0.000000
0.000000
0.000000
148.795609
0.000000
0.000000
560.375732
1259.073730
0.000000
0.000000
564.039917
1762.016724
0.000000
0.000000
1507.443359
1947.019531
0.000000
0.000000
2297.828857
1391.226196
0.000000
0.000000
2395.646729
1277.549438
0.000000
0.000000
2144.443359
2364.383545
0.000000
0.000000
1066.716553
1428.912354
0.000000
0.000000
353.642303
0.000000
0.000000
0.000000
0.000000
0.000000
0.000000
0.000000
0.000000
0.000000
0.000000
0.000000
0.000000
0.000000
0.000000
0.000000
0.000000
0.000000
0.000000
0.000000
1114.315552
645.170288
0.000000
0.000000
0.000000
0.000000
0.000000
0.000000
2048.437988
92.467682
0.000000
0.000000
2515.345947
2413.654297
0.000000
0.000000
1340.480957
111.549652
0.000000
0.000000
3084.134277
2710.970947
0.000000
0.000000
2287.801514
644.765076
0.000000
0.000000
2464.379883
580.667786
0.000000
0.000000
2123.244385
1261.182251
0.000000
0.000000
4105.954102
4948.657715
0.000000
0.000000
2210.111572
1240.769165
0.000000
0.000000
2275.395996
1752.162109
0.000000
0.000000
2838.000244
3184.071045
0.000000
0.000000
1882.268799
0.000000
0.000000
0.000000
2980.988525
877.283875
0.000000
0.000000
3238.893799
3646.339111
0.000000
0.000000
1764.592896
608.509827
0.000000
0.000000
1260.110107
0.000000
335.654816
2470.172607
4188.877930
1728.300659
0.000000
73.782295
0.000000
0.000000
1629.089233
0.000000
0.000000
0.000000
0.000000
0.000000
0.000000
0.000000
0.000000
0.000000
0.000000
0.000000
0.000000
0.000000
0.000000
0.000000
0.000000
0.000000
1165.186646
1372.673218
2752.376709
4214.844727
4382.724609
2507.386475
435.459442
0.000000
758.831604
1628.476196
3270.202148
0.000000
0.000000
0.000000
0.000000
0.000000
0.000000
0.000000
0.000000
0.000000
0.000000
0.000000
0.000000
0.000000
0.000000
0.000000
0.000000
0.000000
0.000000
0.000000
0.000000
0.000000
0.000000
0.000000
0.000000
0.000000
0.000000
0.000000
0.000000
0.000000
0.000000
0.000000
0.000000
0.000000
0.000000
0.000000
0.000000
0.000000
0.000000
0.000000
0.000000
0.000000
0.000000
0.000000
0.000000
0.000000
0.000000
0.000000
0.000000
0.000000
0.000000
0.000000
0.000000
0.000000
0.000000
0.000000
0.000000
0.000000
0.000000
0.000000
0.000000
0.000000
0.000000
0.000000
0.000000
0.000000
0.000000
0.000000
0.000000
0.000000
0.000000
0.000000
</DataArray>
</PointData>
<Cells>
<DataArray type='Int32' Name='connectivity' format='ascii'>
0
1
2
3
4
5
6
7
8
9
10
11
12
13
14
15
16
17
18
19
20
21
22
23
24
25
26
27
28
29
30
31
32
33
34
35
36
37
38
39
40
41
42
43
44
45
46
47
48
49
50
51
52
53
54
55
56
57
58
59
60
61
62
63
64
65
66
67
68
69
70
71
72
73
74
75
76
77
78
79
80
81
82
83
84
85
86
87
88
89
90
91
92
93
94
95
96
97
98
99
100
101
102
103
104
105
106
107
108
109
110
111
112
113
114
115
116
117
118
119
120
121
122
123
124
125
126
127
128
129
130
131
132
133
134
135
136
137
138
139
140
141
142
143
144
145
146
147
148
149
150
151
152
153
154
155
156
157
158
159
160
161
162
163
164
165
166
167
168
169
170
171
172
173
174
175
176
177
178
179
180
181
182
183
184
185
186
187
188
189
190
191
192
193
194
195
196
197
198
199
200
201
202
203
204
205
206
207
208
209
210
211
212
213
214
215
216
217
218
219
220
221
222
223
224
225
226
227
228
229
230
231
232
233
234
235
236
237
238
239
240
241
242
243
244
245
246
247
248
249
250
251
252
253
254
255
256
257
258
259
260
261
262
263
264
265
266
267
268
269
270
271
272
273
274
275
276
277
278
279
280
281
282
283
284
285
286
287
288
289
290
291
292
293
294
295
296
297
298
299
300
301
302
303
304
305
306
307
308
309
310
311
312
313
314
315
316
317
318
319
320
321
322
323
324
325
326
327