<?xml version='1.0' encoding='UTF-8'?>
<VTKFile xmlns='VTK' byte_order='LittleEndian' version='0.1' type='UnstructuredGrid'>
<UnstructuredGrid>
<Piece NumberOfCells='584' NumberOfPoints='584'>
<Points>
<DataArray NumberOfComponents='3' type='Float32' Name='Position' format='ascii'>
-0.075000 -0.075000 0.000000
-0.075000 -0.050000 0.000000
-0.075000 -0.025000 0.000000
-0.075000 0.000000 0.000000
-0.075000 0.025000 0.000000
-0.075000 0.050000 0.000000
-0.075000 0.075000 0.000000
-0.075000 0.100000 0.000000
-0.075000 0.125000 0.000000
-0.075000 0.150000 0.000000
-0.075000 0.175000 0.000000
-0.075000 0.200000 0.000000
-0.075000 0.225000 0.000000
-0.075000 0.250000 0.000000
-0.075000 0.275000 0.000000
-0.075000 0.300000 0.000000
-0.075000 0.325000 0.000000
-0.075000 0.350000 0.000000
-0.075000 0.375000 0.000000
-0.075000 0.400000 0.000000
-0.075000 0.425000 0.000000
-0.075000 0.450000 0.000000
-0.075000 0.475000 0.000000
-0.075000 0.500000 0.000000
-0.075000 0.525000 0.000000
-0.075000 0.550000 0.000000
-0.075000 0.575000 0.000000
-0.075000 0.600000 0.000000
-0.050000 -0.075000 0.000000
-0.050000 -0.050000 0.000000
-0.050000 -0.025000 0.000000
-0.050000 0.000000 0.000000
-0.050000 0.025000 0.000000
-0.050000 0.050000 0.000000
-0.050000 0.075000 0.000000
-0.050000 0.100000 0.000000
-0.050000 0.125000 0.000000
-0.050000 0.150000 0.000000
-0.050000 0.175000 0.000000
-0.050000 0.200000 0.000000
-0.050000 0.225000 0.000000
-0.050000 0.250000 0.000000
-0.050000 0.275000 0.000000
-0.050000 0.300000 0.000000
-0.050000 0.325000 0.000000
-0.050000 0.350000 0.000000
-0.050000 0.375000 0.000000
-0.050000 0.400000 0.000000
-0.050000 0.425000 0.000000
-0.050000 0.450000 0.000000
-0.050000 0.475000 0.000000
-0.050000 0.500000 0.000000
-0.050000 0.525000 0.000000
-0.050000 0.550000 0.000000
-0.050000 0.575000 0.000000
-0.050000 0.600000 0.000000
-0.025000 -0.075000 0.000000
-0.025000 -0.050000 0.000000
-0.025000 -0.025000 0.000000
-0.025000 0.000000 0.000000
-0.025000 0.025000 0.000000
-0.025000 0.050000 0.000000
-0.025000 0.075000 0.000000
-0.025000 0.100000 0.000000
-0.025000 0.125000 0.000000
-0.025000 0.150000 0.000000
-0.025000 0.175000 0.000000
-0.025000 0.200000 0.000000
-0.025000 0.225000 0.000000
-0.025000 0.250000 0.000000
-0.025000 0.275000 0.000000
-0.025000 0.300000 0.000000
-0.025000 0.325000 0.000000
-0.025000 0.350000 0.000000
-0.025000 0.375000 0.000000
-0.025000 0.400000 0.000000
-0.025000 0.425000 0.000000
-0.025000 0.450000 0.000000
-0.025000 0.475000 0.000000
-0.025000 0.500000 0.000000
-0.025000 0.525000 0.000000
-0.025000 0.550000 0.000000
-0.025000 0.575000 0.000000
-0.025000 0.600000 0.000000
0.000000 -0.075000 0.000000
0.000000 -0.050000 0.000000
0.000000 -0.025000 0.000000
0.000000 0.000000 0.000000
0.000000 0.025000 0.000000
0.000000 0.050000 0.000000
0.000000 0.075000 0.000000
0.000000 0.100000 0.000000
0.000000 0.125000 0.000000
0.000000 0.150000 0.000000
0.000000 0.175000 0.000000
0.000000 0.200000 0.000000
0.000000 0.225000 0.000000
0.000000 0.250000 0.000000
0.000000 0.275000 0.000000
0.000000 0.300000 0.000000
0.000000 0.325000 0.000000
0.000000 0.350000 0.000000
0.000000 0.375000 0.000000
0.000000 0.400000 0.000000
0.000000 0.425000 0.000000
0.000000 0.450000 0.000000
0.000000 0.475000 0.000000
0.000000 0.500000 0.000000
0.000000 0.525000 0.000000
0.000000 0.550000 0.000000
0.000000 0.575000 0.000000
0.000000 0.600000 0.000000
0.025000 -0.075000 0.000000
0.025000 -0.050000 0.000000
0.025000 -0.025000 0.000000
0.025000 0.000000 0.000000
0.223256 0.028176 0.000000
0.197007 0.023414 0.000000
0.164007 0.023808 0.000000
0.119445 0.023755 0.000000
0.295596 0.049039 0.000000
0.067573 0.021423 0.000000
0.378190 0.032555 0.000000
0.245591 0.023170 0.000000
0.138878 0.028000 0.000000
0.112352 0.048045 0.000000
0.188357 0.040870 0.000000
0.161063 0.045409 0.000000
0.091649 0.028380 0.000000
0.026177 0.021854 0.000000
0.029708 0.043551 0.000000
0.028871 0.066352 0.000000
0.076922 0.044941 0.000000
0.068377 0.071027 0.000000
0.036212 0.078923 0.000000
0.081668 0.072850 0.000000
0.050000 -0.075000 0.000000
0.050000 -0.050000 0.000000
0.050000 -0.025000 0.000000
0.050000 0.000000 0.000000
0.267611 0.027535 0.000000
0.345411 0.081132 0.000000
0.467523 0.055827 0.000000
0.440696 0.058295 0.000000
0.438276 0.079805 0.000000
0.490781 0.083600 0.000000
0.393308 0.047448 0.000000
0.570813 0.058715 0.000000
0.312767 0.022621 0.000000
0.331315 0.031777 0.000000
0.407617 0.066846 0.000000
0.323841 0.067321 0.000000
0.052085 0.043412 0.000000
0.353109 0.045138 0.000000
0.181174 0.078395 0.000000
0.219308 0.050672 0.000000
0.147058 0.066006 0.000000
0.192897 0.070852 0.000000
0.104716 0.077138 0.000000
0.114803 0.067469 0.000000
0.075000 -0.075000 0.000000
0.075000 -0.050000 0.000000
0.075000 -0.025000 0.000000
0.075000 0.000000 0.000000
0.286259 0.030661 0.000000
0.418884 0.043452 0.000000
0.433334 0.027317 0.000000
0.404208 0.021623 0.000000
0.621541 0.053333 0.000000
0.683531 0.022513 0.000000
0.708461 0.028645 0.000000
0.501567 0.068961 0.000000
0.642925 0.079820 0.000000
0.642424 0.036321 0.000000
0.475118 0.038577 0.000000
0.353896 0.128586 0.000000
0.362011 0.072408 0.000000
0.302349 0.064908 0.000000
0.263133 0.076077 0.000000
0.219170 0.074444 0.000000
0.238073 0.068216 0.000000
0.375634 0.068727 0.000000
0.312514 0.080150 0.000000
0.162588 0.072278 0.000000
0.100000 -0.075000 0.000000
0.100000 -0.050000 0.000000
0.100000 -0.025000 0.000000
0.100000 0.000000 0.000000
0.494436 0.022802 0.000000
0.460722 0.021804 0.000000
0.660459 0.033372 0.000000
0.875698 0.023853 0.000000
0.352102 0.024938 0.000000
0.788350 0.022720 0.000000
0.814357 0.047822 0.000000
0.777652 0.067861 0.000000
0.731640 0.026640 0.000000
0.753756 0.022181 0.000000
0.512948 0.033896 0.000000
0.533545 0.025120 0.000000
0.607607 0.072513 0.000000
0.661517 0.055657 0.000000
0.539954 0.071482 0.000000
0.248434 0.056108 0.000000
0.549441 0.049807 0.000000
0.576628 0.073143 0.000000
0.423234 0.092468 0.000000
0.410658 0.093055 0.000000
0.125000 -0.075000 0.000000
0.125000 -0.050000 0.000000
0.125000 -0.025000 0.000000
0.125000 0.000000 0.000000
0.892793 0.034651 0.000000
0.781693 0.042301 0.000000
1.004878 0.087137 0.000000
0.960559 0.019412 0.000000
0.977626 0.150935 0.000000
0.559562 0.025241 0.000000
0.878000 0.074278 0.000000
0.930522 0.116963 0.000000
0.862354 0.043141 0.000000
0.798208 0.064537 0.000000
0.909119 0.093192 0.000000
0.861705 0.074464 0.000000
0.737460 0.073474 0.000000
0.604442 0.037224 0.000000
0.524754 0.053451 0.000000
0.615374 0.024868 0.000000
0.842434 0.048525 0.000000
0.510859 0.085349 0.000000
0.693858 0.076863 0.000000
0.463361 0.076714 0.000000
0.150000 -0.075000 0.000000
0.150000 -0.050000 0.000000
0.150000 -0.025000 0.000000
0.150000 0.000000 0.000000
0.967856 0.181508 0.000000
0.977228 0.099519 0.000000
0.981607 0.327726 0.000000
0.922347 0.339229 0.000000
0.990826 0.074690 0.000000
0.901748 0.385071 0.000000
0.958421 0.095221 0.000000
0.910774 0.173141 0.000000
0.965742 0.067559 0.000000
0.962185 0.140473 0.000000
0.954157 0.043967 0.000000
0.843110 0.024038 0.000000
0.916832 0.022421 0.000000
0.930644 0.038633 0.000000
0.816761 0.023029 0.000000
0.741555 0.060001 0.000000
0.682322 0.054273 0.000000
0.755111 0.047970 0.000000
0.702265 0.049093 0.000000
0.580461 0.023639 0.000000
0.175000 -0.075000 0.000000
0.175000 -0.050000 0.000000
0.175000 -0.025000 0.000000
0.175000 0.000000 0.000000
0.703270 0.323421 0.000000
0.999704 0.140952 0.000000
0.993744 0.253192 0.000000
1.000611 0.173922 0.000000
0.989424 0.126163 0.000000
0.941629 0.337937 0.000000
0.992866 0.023958 0.000000
0.976346 0.203375 0.000000
0.916790 0.250668 0.000000
1.003641 0.041882 0.000000
0.969563 0.220095 0.000000
1.002088 0.226450 0.000000
0.883569 0.165989 0.000000
0.961619 0.119611 0.000000
0.916113 0.066383 0.000000
0.940058 0.219210 0.000000
0.940636 0.066033 0.000000
0.911126 0.113655 0.000000
0.826233 0.069806 0.000000
0.867785 0.091945 0.000000
0.200000 -0.075000 0.000000
0.200000 -0.050000 0.000000
0.200000 -0.025000 0.000000
0.200000 0.000000 0.000000
0.869116 0.770262 0.000000
0.966049 0.282916 0.000000
0.922595 0.485986 0.000000
0.988300 0.343945 0.000000
0.919037 0.389066 0.000000
0.927893 0.419043 0.000000
0.959693 0.444959 0.000000
0.991874 0.390606 0.000000
0.964401 0.327948 0.000000
0.889128 0.322684 0.000000
0.992087 0.374219 0.000000
0.977387 0.046001 0.000000
0.851131 0.310154 0.000000
0.939378 0.188287 0.000000
0.929990 0.143784 0.000000
0.948621 0.250184 0.000000
0.982266 0.273132 0.000000
0.952576 0.175293 0.000000
0.932181 0.091582 0.000000
0.902958 0.053699 0.000000
0.225000 -0.075000 0.000000
0.225000 -0.050000 0.000000
0.225000 -0.025000 0.000000
0.225000 0.000000 0.000000
0.940031 0.429678 0.000000
0.963704 1.228394 0.000000
0.950768 0.374241 0.000000
0.849605 0.372616 0.000000
0.715492 0.312450 0.000000
0.851102 0.435546 0.000000
0.941086 0.497686 0.000000
0.993693 0.455286 0.000000
0.981201 0.406830 0.000000
0.911295 0.425035 0.000000
0.987543 0.417779 0.000000
0.889010 0.410191 0.000000
0.715417 0.287108 0.000000
0.838755 0.269216 0.000000
0.933164 0.350742 0.000000
0.974443 0.356008 0.000000
0.875267 0.286171 0.000000
0.920521 0.206660 0.000000
0.900569 0.181289 0.000000
0.902318 0.132214 0.000000
0.250000 -0.075000 0.000000
0.250000 -0.050000 0.000000
0.250000 -0.025000 0.000000
0.250000 0.000000 0.000000
0.972794 1.036222 0.000000
0.849213 0.956242 0.000000
0.853372 0.526295 0.000000
0.909440 0.553645 0.000000
0.752936 1.063246 0.000000
0.940777 0.630116 0.000000
0.763518 0.920998 0.000000
0.835259 0.793350 0.000000
0.717577 0.459919 0.000000
0.951164 0.475415 0.000000
0.814499 0.295678 0.000000
0.878227 0.402250 0.000000
0.908004 0.448448 0.000000
0.634799 0.143566 0.000000
0.876838 0.367134 0.000000
0.820761 0.083288 0.000000
0.801313 0.350672 0.000000
1.002981 0.192890 0.000000
0.903820 0.241435 0.000000
0.980624 0.244541 0.000000
0.275000 -0.075000 0.000000
0.275000 -0.050000 0.000000
0.275000 -0.025000 0.000000
0.275000 0.000000 0.000000
0.300000 -0.075000 0.000000
0.300000 -0.050000 0.000000
0.300000 -0.025000 0.000000
0.300000 0.000000 0.000000
0.325000 -0.075000 0.000000
0.325000 -0.050000 0.000000
0.325000 -0.025000 0.000000
0.325000 0.000000 0.000000
0.350000 -0.075000 0.000000
0.350000 -0.050000 0.000000
0.350000 -0.025000 0.000000
0.350000 0.000000 0.000000
0.375000 -0.075000 0.000000
0.375000 -0.050000 0.000000
0.375000 -0.025000 0.000000
0.375000 0.000000 0.000000
0.400000 -0.075000 0.000000
0.400000 -0.050000 0.000000
0.400000 -0.025000 0.000000
0.400000 0.000000 0.000000
0.425000 -0.075000 0.000000
0.425000 -0.050000 0.000000
0.425000 -0.025000 0.000000
0.425000 0.000000 0.000000
0.450000 -0.075000 0.000000
0.450000 -0.050000 0.000000
0.450000 -0.025000 0.000000
0.450000 0.000000 0.000000
0.475000 -0.075000 0.000000
0.475000 -0.050000 0.000000
0.475000 -0.025000 0.000000
0.475000 0.000000 0.000000
0.500000 -0.075000 0.000000
0.500000 -0.050000 0.000000
0.500000 -0.025000 0.000000
0.500000 0.000000 0.000000
0.525000 -0.075000 0.000000
0.525000 -0.050000 0.000000
0.525000 -0.025000 0.000000
0.525000 0.000000 0.000000
0.550000 -0.075000 0.000000
0.550000 -0.050000 0.000000
0.550000 -0.025000 0.000000
0.550000 0.000000 0.000000
0.575000 -0.075000 0.000000
0.575000 -0.050000 0.000000
0.575000 -0.025000 0.000000
0.575000 0.000000 0.000000
0.600000 -0.075000 0.000000
0.600000 -0.050000 0.000000
0.600000 -0.025000 0.000000
0.600000 0.000000 0.000000
0.625000 -0.075000 0.000000
0.625000 -0.050000 0.000000
0.625000 -0.025000 0.000000
0.625000 0.000000 0.000000
0.650000 -0.075000 0.000000
0.650000 -0.050000 0.000000
0.650000 -0.025000 0.000000
0.650000 0.000000 0.000000
0.675000 -0.075000 0.000000
0.675000 -0.050000 0.000000
0.675000 -0.025000 0.000000
0.675000 0.000000 0.000000
0.700000 -0.075000 0.000000
0.700000 -0.050000 0.000000
0.700000 -0.025000 0.000000
0.700000 0.000000 0.000000
0.725000 -0.075000 0.000000
0.725000 -0.050000 0.000000
0.725000 -0.025000 0.000000
0.725000 0.000000 0.000000
0.750000 -0.075000 0.000000
0.750000 -0.050000 0.000000
0.750000 -0.025000 0.000000
0.750000 0.000000 0.000000
0.775000 -0.075000 0.000000
0.775000 -0.050000 0.000000
0.775000 -0.025000 0.000000
0.775000 0.000000 0.000000
0.800000 -0.075000 0.000000
0.800000 -0.050000 0.000000
0.800000 -0.025000 0.000000
0.800000 0.000000 0.000000
0.825000 -0.075000 0.000000
0.825000 -0.050000 0.000000
0.825000 -0.025000 0.000000
0.825000 0.000000 0.000000
0.850000 -0.075000 0.000000
0.850000 -0.050000 0.000000
0.850000 -0.025000 0.000000
0.850000 0.000000 0.000000
0.875000 -0.075000 0.000000
0.875000 -0.050000 0.000000
0.875000 -0.025000 0.000000
0.875000 0.000000 0.000000
0.900000 -0.075000 0.000000
0.900000 -0.050000 0.000000
0.900000 -0.025000 0.000000
0.900000 0.000000 0.000000
0.925000 -0.075000 0.000000
0.925000 -0.050000 0.000000
0.925000 -0.025000 0.000000
0.925000 0.000000 0.000000
0.950000 -0.075000 0.000000
0.950000 -0.050000 0.000000
0.950000 -0.025000 0.000000
0.950000 0.000000 0.000000
0.975000 -0.075000 0.000000
0.975000 -0.050000 0.000000
0.975000 -0.025000 0.000000
0.975000 0.000000 0.000000
1.000000 -0.075000 0.000000
1.000000 -0.050000 0.000000
1.000000 -0.025000 0.000000
1.000000 0.000000 0.000000
1.025000 -0.075000 0.000000
1.025000 -0.050000 0.000000
1.025000 -0.025000 0.000000
1.025000 0.000000 0.000000
1.025000 0.025000 0.000000
1.025000 0.050000 0.000000
1.025000 0.075000 0.000000
1.025000 0.100000 0.000000
1.025000 0.125000 0.000000
1.025000 0.150000 0.000000
1.025000 0.175000 0.000000
1.025000 0.200000 0.000000
1.025000 0.225000 0.000000
1.025000 0.250000 0.000000
1.025000 0.275000 0.000000
1.025000 0.300000 0.000000
1.025000 0.325000 0.000000
1.025000 0.350000 0.000000
1.025000 0.375000 0.000000
1.025000 0.400000 0.000000
1.025000 0.425000 0.000000
1.025000 0.450000 0.000000
1.025000 0.475000 0.000000
1.025000 0.500000 0.000000
1.025000 0.525000 0.000000
1.025000 0.550000 0.000000
1.025000 0.575000 0.000000
1.025000 0.600000 0.000000
1.050000 -0.075000 0.000000
1.050000 -0.050000 0.000000
1.050000 -0.025000 0.000000
1.050000 0.000000 0.000000
1.050000 0.025000 0.000000
1.050000 0.050000 0.000000
1.050000 0.075000 0.000000
1.050000 0.100000 0.000000
1.050000 0.125000 0.000000
1.050000 0.150000 0.000000
1.050000 0.175000 0.000000
1.050000 0.200000 0.000000
1.050000 0.225000 0.000000
1.050000 0.250000 0.000000
1.050000 0.275000 0.000000
1.050000 0.300000 0.000000
1.050000 0.325000 0.000000
1.050000 0.350000 0.000000
1.050000 0.375000 0.000000
1.050000 0.400000 0.000000
1.050000 0.425000 0.000000
1.050000 0.450000 0.000000
1.050000 0.475000 0.000000
1.050000 0.500000 0.000000
1.050000 0.525000 0.000000
1.050000 0.550000 0.000000
1.050000 0.575000 0.000000
1.050000 0.600000 0.000000
1.075000 -0.075000 0.000000
1.075000 -0.050000 0.000000
1.075000 -0.025000 0.000000
1.075000 0.000000 0.000000
1.075000 0.025000 0.000000
1.075000 0.050000 0.000000
1.075000 0.075000 0.000000
1.075000 0.100000 0.000000
1.075000 0.125000 0.000000
1.075000 0.150000 0.000000
1.075000 0.175000 0.000000
1.075000 0.200000 0.000000
1.075000 0.225000 0.000000
1.075000 0.250000 0.000000
1.075000 0.275000 0.000000
1.075000 0.300000 0.000000
1.075000 0.325000 0.000000
1.075000 0.350000 0.000000
1.075000 0.375000 0.000000
1.075000 0.400000 0.000000
1.075000 0.425000 0.000000
1.075000 0.450000 0.000000
1.075000 0.475000 0.000000
1.075000 0.500000 0.000000
1.075000 0.525000 0.000000
1.075000 0.550000 0.000000
1.075000 0.575000 0.000000
1.075000 0.600000 0.000000
1.100000 -0.075000 0.000000
1.100000 -0.050000 0.000000
1.100000 -0.025000 0.000000
1.100000 0.000000 0.000000
1.100000 0.025000 0.000000
1.100000 0.050000 0.000000
1.100000 0.075000 0.000000
1.100000 0.100000 0.000000
1.100000 0.125000 0.000000
1.100000 0.150000 0.000000
1.100000 0.175000 0.000000
1.100000 0.200000 0.000000
1.100000 0.225000 0.000000
1.100000 0.250000 0.000000
1.100000 0.275000 0.000000
1.100000 0.300000 0.000000
1.100000 0.325000 0.000000
1.100000 0.350000 0.000000
1.100000 0.375000 0.000000
1.100000 0.400000 0.000000
1.100000 0.425000 0.000000
1.100000 0.450000 0.000000
1.100000 0.475000 0.000000
1.100000 0.500000 0.000000
1.100000 0.525000 0.000000
1.100000 0.550000 0.000000
1.100000 0.575000 0.000000
1.100000 0.600000 0.000000
</DataArray>
</Points>
<PointData>
<DataArray NumberOfComponents='1' type='Int32' Name='ParticleType' format='ascii'>
3
3
3
3
3
3
3
3
3
3
3
3
3
3
3
3
3
3
3
3
3
3
3
3
3
3
2
2
3
3
3
3
3
3
3
3
3
3
3
3
3
3
3
3
3
3
3
3
3
3
3
3
3
3
2
2
3
3
2
2
2
2
2
2
2
2
2
2
2
2
2
2
2
2
2
2
2
2
2
2
2
2
2
2
3
3
2
2
2
2
2
2
2
2
2
2
2
2
2
2
2
2
2
2
2
2
2
2
2
2
2
2
3
3
2
2
0
0
0
0
0
0
0
0
0
0
0
0
0
0
0
0
0
0
0
0
3
3
2
2
0
0
0
0
0
0
0
0
0
0
0
0
0
0
0
0
0
0
0
0
3
3
2
2
0
0
0
0
0
0
0
0
0
0
0
0
0
0
0
0
0
0
0
0
3
3
2
2
0
0
0
0
0
0
0
0
0
0
0
0
0
0
0
0
0
0
0
0
3
3
2
2
0
0
0
0
0
0
0
0
0
0
0
0
0
0
0
0
0
0
0
0
3
3
2
2
0
0
0
0
0
0
0
0
0
0
0
0
0
0
0
0
0
0
0
0
3
3
2
2
0
0
0
0
0
0
0
0
0
0
0
0
0
0
0
0
0
0
0
0
3
3
2
2
0
0
0
0
0
0
0
0
0
0
0
0
0
0
0
0
0
0
0
0
3
3
2
2
0
0
0
0
0
0
0
0
0
0
0
0
0
0
0
0
0
0
0
0
3
3
2
2
0
0
0
0
0
0
0
0
0
0
0
0
0
0
0
0
0
0
0
0
3
3
2
2
3
3
2
2
3
3
2
2
3
3
2
2
3
3
2
2
3
3
2
2
3
3
2
2
3
3
2
2
3
3
2
2
3
3
2
2
3
3
2
2
3
3
2
2
3
3
2
2
3
3
2
2
3
3
2
2
3
3
2
2
3
3
2
2
3
3
2
2
3
3
2
2
3
3
2
2
3
3
2
2
3
3
2
2
3
3
2
2
3
3
2
2
3
3
2
2
3
3
2
2
3
3
2
2
3
3
2
2
3
3
2
2
3
3
2
2
3
3
2
2
2
2
2
2
2
2
2
2
2
2
2
2
2
2
2
2
2
2
2
2
2
2
2
2
3
3
2
2
2
2
2
2
2
2
2
2
2
2
2
2
2
2
2
2
2
2
2
2
2
2
2
2
3
3
3
3
3
3
3
3
3
3
3
3
3
3
3
3
3
3
3
3
3
3
3
3
3
3
2
2
3
3
3
3
3
3
3
3
3
3
3
3
3
3
3
3
3
3
3
3
3
3
3
3
3
3
2
2
</DataArray>
<DataArray NumberOfComponents='1' type='Float32' Name='Velocity' format='ascii'>
0.000000
0.000000
0.000000
0.000000
0.000000
0.000000
0.000000
0.000000
0.000000
0.000000
0.000000
0.000000
0.000000
0.000000
0.000000
0.000000
0.000000
0.000000
0.000000
0.000000
0.000000
0.000000
0.000000
0.000000
0.000000
0.000000
0.000000
0.000000
0.000000
0.000000
0.000000
0.000000
0.000000
0.000000
0.000000
0.000000
0.000000
0.000000
0.000000
0.000000
0.000000
0.000000
0.000000
0.000000
0.000000
0.000000
0.000000
0.000000
0.000000
0.000000
0.000000
0.000000
0.000000
0.000000
0.000000
0.000000
0.000000
0.000000
0.000000
0.000000
0.000000
0.000000
0.000000
0.000000
0.000000
0.000000
0.000000
0.000000
0.000000
0.000000
0.000000
0.000000
0.000000
0.000000
0.000000
0.000000
0.000000
0.000000
0.000000
0.000000
0.000000
0.000000
0.000000
0.000000
0.000000
0.000000
0.000000
0.000000
0.000000
0.000000
0.000000
0.000000
0.000000
0.000000
0.000000
0.000000
0.000000
0.000000
0.000000
0.000000
0.000000
0.000000
0.000000
0.000000
0.000000
0.000000
0.000000
0.000000
0.000000
0.000000
0.000000
0.000000
0.000000
0.000000
0.000000
0.000000
0.197706
0.521662
0.277661
0.238426
0.524961
0.143908
0.736683
0.528922
0.311298
0.361947
0.428147
0.162004
0.274376
0.121547
0.132950
0.026761
0.227714
0.409837
0.258184
0.199182
0.000000
0.000000
0.000000
0.000000
0.268033
0.990685
0.908044
0.843150
1.047558
1.123445
0.412010
1.069689
0.428778
0.501472
0.846606
0.607872
0.036975
0.381252
0.266427
0.411663
0.331859
0.469372
0.223009
0.103093
0.000000
0.000000
0.000000
0.000000
0.284988
0.684459
0.780074
0.889572
1.175636
1.293813
1.226318
1.373197
1.470759
1.145387
0.782387
0.657914
0.797440
0.409024
0.174418
0.558827
0.452332
1.003476
0.501269
0.566722
0.000000
0.000000
0.000000
0.000000
0.889412
0.577447
1.050095
0.476095
0.245873
1.010372
1.315826
1.274845
1.403696
1.239213
0.823576
0.793886
1.028254
1.284441
0.993097
0.637626
1.062467
1.551106
0.885683
0.870564
0.000000
0.000000
0.000000
0.000000
0.759705
1.193241
0.375906
0.128485
0.949073
0.934960
0.881202
1.136039
1.135724
1.288104
0.835064
1.521807
1.315677
1.029732
1.121425
0.770814
1.301888
1.506374
1.404217
1.226048
0.000000
0.000000
0.000000
0.000000
0.806203
0.166201
0.867268
0.618854
0.238587
0.589147
0.513326
0.396776
0.132077
1.004238
0.745992
1.004920
0.531914
0.502257
0.980983
1.399439
1.426330
1.270116
1.337902
1.176511
0.000000
0.000000
0.000000
0.000000
1.264182
0.639180
0.418828
0.782378
0.845367
0.624393
0.246339
0.654700
0.342809
0.137444
0.605455
0.321468
0.589781
1.075772
0.966923
0.627451
0.307571
1.235210
1.300684
1.361202
0.000000
0.000000
0.000000
0.000000
0.386261
0.704755
0.444874
0.302149
0.267893
0.124131
0.281559
0.322063
0.569139
0.706197
0.221990
0.270061
0.940886
1.036698
0.660867
0.693511
0.516758
0.796903
0.827109
0.730476
0.000000
0.000000
0.000000
0.000000
0.424913
1.213119
0.019702
0.954916
1.235371
0.823861
0.354416
0.242339
0.299702
0.368498
0.084225
0.491673
1.204734
1.016143
0.410032
0.208399
0.627799
1.039080
0.534176
0.757637
0.000000
0.000000
0.000000
0.000000
0.489634
0.639299
0.596551
0.359292
0.935769
0.322364
0.716761
0.521779
1.011554
0.378024
0.984491
0.573758
0.438351
1.790384
0.614726
1.300234
1.003323
0.909969
0.371977
0.541724
0.000000
0.000000
0.000000
0.000000
0.000000
0.000000
0.000000
0.000000
0.000000
0.000000
0.000000
0.000000
0.000000
0.000000
0.000000
0.000000
0.000000
0.000000
0.000000
0.000000
0.000000
0.000000
0.000000
0.000000
0.000000
0.000000
0.000000
0.000000
0.000000
0.000000
0.000000
0.000000
0.000000
0.000000
0.000000
0.000000
0.000000
0.000000
0.000000
0.000000
0.000000
0.000000
0.000000
0.000000
0.000000
0.000000
0.000000
0.000000
0.000000
0.000000
0.000000
0.000000
0.000000
0.000000
0.000000
0.000000
0.000000
0.000000
0.000000
0.000000
0.000000
0.000000
0.000000
0.000000
0.000000
0.000000
0.000000
0.000000
0.000000
0.000000
0.000000
0.000000
0.000000
0.000000
0.000000
0.000000
0.000000
0.000000
0.000000
0.000000
0.000000
0.000000
0.000000
0.000000
0.000000
0.000000
0.000000
0.000000
0.000000
0.000000
0.000000
0.000000
0.000000
0.000000
0.000000
0.000000
0.000000
0.000000
0.000000
0.000000
0.000000
0.000000
0.000000
0.000000
0.000000
0.000000
0.000000
0.000000
0.000000
0.000000
0.000000
0.000000
0.000000
0.000000
0.000000
0.000000
0.000000
0.000000
0.000000
0.000000
0.000000
0.000000
0.000000
0.000000
0.000000
0.000000
0.000000
0.000000
0.000000
0.000000
0.000000
0.000000
0.000000
0.000000
0.000000
0.000000
0.000000
0.000000
0.000000
0.000000
0.000000
0.000000
0.000000
0.000000
0.000000
0.000000
0.000000
0.000000
0.000000
0.000000
0.000000
0.000000
0.000000
0.000000
0.000000
0.000000
0.000000
0.000000
0.000000
0.000000
0.000000
0.000000
0.000000
0.000000
0.000000
0.000000
0.000000
0.000000
0.000000
0.000000
0.000000
0.000000
0.000000
0.000000
0.000000
0.000000
0.000000
0.000000
0.000000
0.000000
0.000000
0.000000
0.000000
0.000000
0.000000
0.000000
0.000000
0.000000
0.000000
0.000000
0.000000
0.000000
0.000000
0.000000
0.000000
0.000000
0.000000
0.000000
0.000000
0.000000
0.000000
0.000000
0.000000
0.000000
0.000000
0.000000
0.000000
0.000000
0.000000
0.000000
0.000000
0.000000
0.000000
0.000000
0.000000
0.000000
0.000000
0.000000
0.000000
0.000000
0.000000
0.000000
0.000000
0.000000
0.000000
0.000000
0.000000
0.000000
0.000000
0.000000
0.000000
0.000000
</DataArray>
<DataArray NumberOfComponents='1' type='Float32' Name='pressure' format='ascii'>
0.000000
0.000000
0.000000
0.000000
0.000000
0.000000
0.000000
0.000000
0.000000
0.000000
0.000000
0.000000
0.000000
0.000000
0.000000
0.000000
0.000000
0.000000
0.000000
0.000000
0.000000
0.000000
0.000000
0.000000
0.000000
0.000000
0.000000
0.000000
0.000000
0.000000
0.000000
0.000000
0.000000
0.000000
0.000000
0.000000
0.000000
0.000000
0.000000
0.000000
0.000000
0.000000
0.000000
0.000000
0.000000
0.000000
0.000000
0.000000
0.000000
0.000000
0.000000
0.000000
0.000000
0.000000
0.000000
0.000000
0.000000
0.000000
511.105682
122.924660
0.000000
0.000000
0.000000
0.000000
0.000000
0.000000
0.000000
0.000000
0.000000
0.000000
0.000000
0.000000
0.000000
0.000000
0.000000
0.000000
0.000000
0.000000
0.000000
0.000000
0.000000
0.000000
0.000000
0.000000
0.000000
0.000000
801.808228
997.594849
0.000000
0.000000
0.000000
0.000000
0.000000
0.000000
0.000000
0.000000
0.000000
0.000000
0.000000
0.000000
0.000000
0.000000
0.000000
0.000000
0.000000
0.000000
0.000000
0.000000
0.000000
0.000000
0.000000
0.000000
0.000000
0.000000
2078.475342
1549.062134
974.449036
908.778076
1359.636230
846.764771
747.336365
1.898543
53.449310
716.541138
79.528763
0.000000
212.806824
793.136841
689.348755
0.000000
890.750244
136.306992
1301.538574
0.000000
0.000000
0.000000
0.000000
0.000000
1179.042114
0.000000
0.000000
0.000000
0.000000
45.737488
0.000000
0.000000
1427.617310
0.000000
2429.767578
1018.979309
0.000000
545.172058
0.000000
0.000000
0.000000
769.575745
0.000000
0.000000
0.000000
267.025116
0.000000
0.000000
2006.197388
1484.442261
963.940796
895.619263
0.000000
0.000000
0.000000
813.158203
0.000000
592.627014
0.000000
0.000000
489.304718
0.000000
395.886353
1327.276001
0.000000
0.000000
498.718140
0.000000
0.000000
0.000000
0.000000
0.000000
209.909424
0.000000
844.363708
0.000000
2299.794189
3249.271240
2257.221680
1547.642578
3459.971924
0.000000
0.000000
670.716797
42.373367
1846.743286
0.000000
0.000000
0.000000
0.000000
0.000000
0.000000
0.000000
0.000000
0.000000
0.000000
1333.127686
2252.850830
2609.599121
0.000000
0.000000
1386.758057
0.000000
709.049561
0.000000
324.523102
1937.826172
0.000000
0.000000
0.000000
0.000000
274.208435
0.000000
1436.556885
2518.650391
0.000000
0.000000
0.000000
0.000000
0.000000
829.214417
1071.408569
769.304871
0.000000
0.000000
0.000000
0.000000
0.000000
1940.088989
0.000000
933.789490
0.000000
1699.073242
1908.463623
1176.696533
1417.080200
2141.615723
69.837204
0.000000
0.000000
0.000000
0.000000
0.000000
0.000000
1036.746216
916.785828
0.000000
0.000000
0.000000
0.000000
347.772644
0.000000
853.382690
0.000000
0.000000
774.653442
0.000000
0.000000
0.000000
540.147705
2014.818359
0.000000
1706.282471
0.000000
1257.185425
0.000000
0.000000
0.000000
1483.501099
1189.467163
0.000000
0.000000
0.000000
0.000000
0.000000
0.000000
0.000000
0.000000
0.000000
0.000000
0.000000
0.000000
0.000000
0.000000
0.000000
0.000000
0.000000
0.000000
1582.744629
1926.973022
0.000000
0.000000
257.078888
256.380280
0.000000
0.000000
0.000000
0.000000
0.000000
0.000000
0.000000
0.000000
0.000000
0.000000
0.000000
0.000000
0.000000
0.000000
16.110481
0.000000
0.000000
0.000000
0.000000
0.000000
0.000000
0.000000
1455.407471
2761.894043
0.000000
0.000000
0.000000
0.000000
0.000000
0.000000
0.000000
0.000000
0.000000
0.000000
0.000000
0.000000
0.000000
0.000000
0.000000
0.000000
0.000000
1314.564819
0.000000
0.000000
0.000000
0.000000
47.737038
0.000000
0.000000
0.000000
1061.333618
302.491974
0.000000
0.000000
1216.343994
1420.415283
0.000000
0.000000
756.284180
758.031006
0.000000
0.000000
0.000000
0.000000
0.000000
0.000000
1394.440308
456.233490
0.000000
0.000000
88.768410
0.000000
0.000000
0.000000
1480.176025
0.000000
0.000000
0.000000
2070.845459
2154.311035
0.000000
0.000000
2239.179688
2818.722168
0.000000
0.000000
1040.670654
358.859192
0.000000
0.000000
612.849976
1347.831177
0.000000
0.000000
906.293945
1891.532104
0.000000
0.000000
0.000000
0.000000
0.000000
0.000000
0.000000
0.000000
0.000000
0.000000
0.000000
0.000000
0.000000
0.000000
427.390381
0.000000
0.000000
0.000000
0.000000
0.000000
0.000000
0.000000
0.000000
0.000000
0.000000
0.000000
2479.516602
2809.762939
0.000000
0.000000
2784.053711
1449.556030
0.000000
0.000000
3749.705078
3216.364502
0.000000
0.000000
3643.530518
3737.416748
0.000000
0.000000
3020.633545
2875.637207
0.000000
0.000000
2625.619629
2363.875732
0.000000
0.000000
1647.161011
0.000000
0.000000
0.000000
2432.269043
0.000000
0.000000
0.000000
3762.993896
2236.077637
0.000000
0.000000
3403.332520
2369.633057
0.000000
0.000000
1673.983276
429.909210
0.000000
0.000000
946.634277
90.559647
20.844788
1063.799561
242.195343
0.000000
0.000000
0.000000
2621.996582
3549.888184
0.000000
0.000000
0.000000
0.000000
0.000000
0.000000
0.000000
0.000000
0.000000
0.000000
0.000000
0.000000
0.000000
0.000000
0.000000
0.000000
0.000000
0.000000
760.284729
748.961365
1140.242554
2086.128418
2144.915771
1704.462524
0.000000
533.766052
2467.495361
2505.765869
1426.076904
0.000000
0.000000
0.000000
0.000000
0.000000
0.000000
0.000000
0.000000
0.000000
0.000000
0.000000
0.000000
0.000000
0.000000
0.000000
0.000000
0.000000
0.000000
0.000000
0.000000
0.000000
0.000000
0.000000
0.000000
0.000000
0.000000
0.000000
0.000000
0.000000
0.000000
0.000000
0.000000
0.000000
0.000000
0.000000
0.000000
0.000000
0.000000
0.000000
0.000000
0.000000
0.000000
0.000000
0.000000
0.000000
0.000000
0.000000
0.000000
0.000000
0.000000
0.000000
0.000000
0.000000
0.000000
0.000000
0.000000
0.000000
0.000000
0.000000
0.000000
0.000000
0.000000
0.000000
0.000000
0.000000
0.000000
0.000000
0.000000
0.000000
0.000000
0.000000
</DataArray>
</PointData>
<Cells>
<DataArray type='Int32' Name='connectivity' format='ascii'>
0
1
2
3
4
5
6
7
8
9
10
11
12
13
14
15
16
17
18
19
20
21
22
23
24
25
26
27
28
29
30
31
32
33
34
35
36
37
38
39
40
41
42
43
44
45
46
47
48
49
50
51
52
53
54
55
56
57
58
59
60
61
62
63
64
65
66
67
68
69
70
71
72
73
74
75
76
77
78
79
80
81
82
83
84
85
86
87
88
89
90
91
92
93
94
95
96
97
98
99
100
101
102
103
104
105
106
107
108
109
110
111
112
113
114
115
116
117
118
119
120
121
122
123
124
125
126
127
128
129
130
131
132
133
134
135
136
137
138
139
140
141
142
143
144
145
146
147
148
149
150
151
152
153
154
155
156
157
158
159
160
161
162
163
164
165
166
167
168
169
170
171
172
173
174
175
176
177
178
179
180
181
182
183
184
185
186
187
188
189
190
191
192
193
194
195
196
197
198
199
200
201
202
203
204
205
206
207
208
209
210
211
212
213
214
215
216
217
218
219
220
221
222
223
224
225
226
227
228
229
230
231
232
233
234
235
236
237
238
239
240
241
242
243
244
245
246
247
248
249
250
251
252
253
254
255
256
257
258
259
260
261
262
263
264
265
266
267
268
269
270
271
272
273
274
275
276
277
278
279
280
281
282
283
284
285
286
287
288
289
290
291
292
293
294
295
296
297
298
299
300
301
302
303
304
305
306
307
308
309
310
311
312
313
314
315
316
317
318
319
320
321
322
323
324
325
326
327
328
329
330
331
332
333
334
335
336
337
338
339
340
341
342
343
344
345