<?xml version='1.0' encoding='UTF-8'?>
<VTKFile xmlns='VTK' byte_order='LittleEndian' version='0.1' type='UnstructuredGrid'>
<UnstructuredGrid>
<Piece NumberOfCells='584' NumberOfPoints='584'>
<Points>
<DataArray NumberOfComponents='3' type='Float32' Name='Position' format='ascii'>
-0.075000 -0.075000 0.000000
-0.075000 -0.050000 0.000000
-0.075000 -0.025000 0.000000
-0.075000 0.000000 0.000000
-0.075000 0.025000 0.000000
-0.075000 0.050000 0.000000
-0.075000 0.075000 0.000000
-0.075000 0.100000 0.000000
-0.075000 0.125000 0.000000
-0.075000 0.150000 0.000000
-0.075000 0.175000 0.000000
-0.075000 0.200000 0.000000
-0.075000 0.225000 0.000000
-0.075000 0.250000 0.000000
-0.075000 0.275000 0.000000
-0.075000 0.300000 0.000000
-0.075000 0.325000 0.000000
-0.075000 0.350000 0.000000
-0.075000 0.375000 0.000000
-0.075000 0.400000 0.000000
-0.075000 0.425000 0.000000
-0.075000 0.450000 0.000000
-0.075000 0.475000 0.000000
-0.075000 0.500000 0.000000
-0.075000 0.525000 0.000000
-0.075000 0.550000 0.000000
-0.075000 0.575000 0.000000
-0.075000 0.600000 0.000000
-0.050000 -0.075000 0.000000
-0.050000 -0.050000 0.000000
-0.050000 -0.025000 0.000000
-0.050000 0.000000 0.000000
-0.050000 0.025000 0.000000
-0.050000 0.050000 0.000000
-0.050000 0.075000 0.000000
-0.050000 0.100000 0.000000
-0.050000 0.125000 0.000000
-0.050000 0.150000 0.000000
-0.050000 0.175000 0.000000
-0.050000 0.200000 0.000000
-0.050000 0.225000 0.000000
-0.050000 0.250000 0.000000
-0.050000 0.275000 0.000000
-0.050000 0.300000 0.000000
-0.050000 0.325000 0.000000
-0.050000 0.350000 0.000000
-0.050000 0.375000 0.000000
-0.050000 0.400000 0.000000
-0.050000 0.425000 0.000000
-0.050000 0.450000 0.000000
-0.050000 0.475000 0.000000
-0.050000 0.500000 0.000000
-0.050000 0.525000 0.000000
-0.050000 0.550000 0.000000
-0.050000 0.575000 0.000000
-0.050000 0.600000 0.000000
-0.025000 -0.075000 0.000000
-0.025000 -0.050000 0.000000
-0.025000 -0.025000 0.000000
-0.025000 0.000000 0.000000
-0.025000 0.025000 0.000000
-0.025000 0.050000 0.000000
-0.025000 0.075000 0.000000
-0.025000 0.100000 0.000000
-0.025000 0.125000 0.000000
-0.025000 0.150000 0.000000
-0.025000 0.175000 0.000000
-0.025000 0.200000 0.000000
-0.025000 0.225000 0.000000
-0.025000 0.250000 0.000000
-0.025000 0.275000 0.000000
-0.025000 0.300000 0.000000
-0.025000 0.325000 0.000000
-0.025000 0.350000 0.000000
-0.025000 0.375000 0.000000
-0.025000 0.400000 0.000000
-0.025000 0.425000 0.000000
-0.025000 0.450000 0.000000
-0.025000 0.475000 0.000000
-0.025000 0.500000 0.000000
-0.025000 0.525000 0.000000
-0.025000 0.550000 0.000000
-0.025000 0.575000 0.000000
-0.025000 0.600000 0.000000
0.000000 -0.075000 0.000000
0.000000 -0.050000 0.000000
0.000000 -0.025000 0.000000
0.000000 0.000000 0.000000
0.000000 0.025000 0.000000
0.000000 0.050000 0.000000
0.000000 0.075000 0.000000
0.000000 0.100000 0.000000
0.000000 0.125000 0.000000
0.000000 0.150000 0.000000
0.000000 0.175000 0.000000
0.000000 0.200000 0.000000
0.000000 0.225000 0.000000
0.000000 0.250000 0.000000
0.000000 0.275000 0.000000
0.000000 0.300000 0.000000
0.000000 0.325000 0.000000
0.000000 0.350000 0.000000
0.000000 0.375000 0.000000
0.000000 0.400000 0.000000
0.000000 0.425000 0.000000
0.000000 0.450000 0.000000
0.000000 0.475000 0.000000
0.000000 0.500000 0.000000
0.000000 0.525000 0.000000
0.000000 0.550000 0.000000
0.000000 0.575000 0.000000
0.000000 0.600000 0.000000
0.025000 -0.075000 0.000000
0.025000 -0.050000 0.000000
0.025000 -0.025000 0.000000
0.025000 0.000000 0.000000
0.284587 0.021328 0.000000
0.250069 0.025573 0.000000
0.245907 0.052538 0.000000
0.180222 0.025551 0.000000
0.364993 0.022566 0.000000
0.071089 0.025656 0.000000
0.465380 0.028936 0.000000
0.318911 0.022348 0.000000
0.215461 0.020290 0.000000
0.148176 0.058691 0.000000
0.288343 0.045285 0.000000
0.183617 0.048736 0.000000
0.149417 0.023752 0.000000
0.037539 0.019055 0.000000
0.021000 0.038868 0.000000
0.041546 0.049447 0.000000
0.101401 0.022949 0.000000
0.082133 0.047872 0.000000
0.084137 0.067242 0.000000
0.122542 0.028008 0.000000
0.050000 -0.075000 0.000000
0.050000 -0.050000 0.000000
0.050000 -0.025000 0.000000
0.050000 0.000000 0.000000
0.345171 0.028440 0.000000
0.597078 0.085283 0.000000
0.580024 0.046263 0.000000
0.522238 0.149098 0.000000
0.566188 0.122282 0.000000
0.657601 0.043381 0.000000
0.547555 0.058521 0.000000
0.762331 0.056841 0.000000
0.401175 0.024770 0.000000
0.392370 0.064219 0.000000
0.481436 0.122957 0.000000
0.472800 0.055868 0.000000
0.063615 0.045618 0.000000
0.445328 0.072109 0.000000
0.261461 0.040828 0.000000
0.301578 0.046287 0.000000
0.208124 0.042336 0.000000
0.325252 0.051378 0.000000
0.113415 0.047186 0.000000
0.153188 0.043563 0.000000
0.075000 -0.075000 0.000000
0.075000 -0.050000 0.000000
0.075000 -0.025000 0.000000
0.075000 0.000000 0.000000
0.378139 0.060286 0.000000
0.571069 0.080030 0.000000
0.566540 0.029871 0.000000
0.523441 0.024752 0.000000
0.837145 0.106439 0.000000
0.846933 0.023004 0.000000
0.848513 0.052174 0.000000
0.408577 0.151476 0.000000
0.805474 0.072087 0.000000
0.806413 0.050051 0.000000
0.658347 0.020533 0.000000
0.548344 0.023601 0.000000
0.384507 0.102778 0.000000
0.388653 0.038666 0.000000
0.424596 0.033466 0.000000
0.358336 0.068035 0.000000
0.343479 0.053737 0.000000
0.448706 0.088520 0.000000
0.448200 0.136707 0.000000
0.224454 0.048286 0.000000
0.100000 -0.075000 0.000000
0.100000 -0.050000 0.000000
0.100000 -0.025000 0.000000
0.100000 0.000000 0.000000
0.694715 0.041526 0.000000
0.618332 0.023072 0.000000
0.783427 0.088976 0.000000
0.919688 0.020515 0.000000
0.433423 0.063613 0.000000
0.897578 0.038820 0.000000
0.890972 0.086087 0.000000
0.778049 0.164823 0.000000
0.882240 0.022565 0.000000
0.863939 0.040392 0.000000
0.696674 0.025885 0.000000
0.669555 0.058714 0.000000
0.834506 0.076425 0.000000
0.807999 0.020841 0.000000
0.611308 0.080311 0.000000
0.437712 0.022930 0.000000
0.731189 0.020274 0.000000
0.809544 0.135686 0.000000
0.633009 0.040346 0.000000
0.525831 0.065634 0.000000
0.125000 -0.075000 0.000000
0.125000 -0.050000 0.000000
0.125000 -0.025000 0.000000
0.125000 0.000000 0.000000
0.913183 0.049424 0.000000
0.900263 0.113809 0.000000
1.003590 0.153069 0.000000
0.950108 0.027661 0.000000
0.947254 0.188226 0.000000
0.762339 0.029211 0.000000
0.731643 0.127732 0.000000
0.884082 0.145962 0.000000
0.929242 0.114610 0.000000
0.882621 0.124513 0.000000
0.949067 0.102521 0.000000
0.824902 0.193069 0.000000
0.727481 0.057868 0.000000
0.786977 0.056111 0.000000
0.640500 0.079704 0.000000
0.781230 0.026389 0.000000
0.829678 0.136735 0.000000
0.543145 0.071267 0.000000
0.756421 0.095108 0.000000
0.539593 0.118944 0.000000
0.150000 -0.075000 0.000000
0.150000 -0.050000 0.000000
0.150000 -0.025000 0.000000
0.150000 0.000000 0.000000
0.744939 0.114346 0.000000
1.000974 0.061151 0.000000
0.958973 0.312813 0.000000
0.682118 0.098502 0.000000
0.979172 0.070541 0.000000
0.602440 0.138453 0.000000
0.978726 0.121511 0.000000
0.793319 0.104044 0.000000
0.999883 0.116426 0.000000
0.955472 0.148075 0.000000
0.967986 0.039601 0.000000
0.882707 0.066793 0.000000
0.938686 0.044442 0.000000
0.958196 0.061629 0.000000
0.916197 0.092181 0.000000
0.856881 0.117389 0.000000
0.828570 0.037241 0.000000
0.869168 0.098545 0.000000
0.855690 0.078197 0.000000
0.698166 0.071852 0.000000
0.175000 -0.075000 0.000000
0.175000 -0.050000 0.000000
0.175000 -0.025000 0.000000
0.175000 0.000000 0.000000
0.428373 0.105799 0.000000
0.961254 0.170078 0.000000
0.976750 0.193564 0.000000
0.992328 0.174592 0.000000
0.984801 0.144155 0.000000
0.652209 0.137272 0.000000
0.987533 0.020615 0.000000
0.786172 0.185865 0.000000
0.660212 0.114299 0.000000
1.001373 0.036465 0.000000
0.865829 0.176693 0.000000
0.934868 0.171930 0.000000
0.804362 0.161384 0.000000
0.953401 0.128694 0.000000
0.978027 0.094543 0.000000
0.694805 0.105100 0.000000
1.001281 0.091224 0.000000
0.845482 0.144565 0.000000
0.790665 0.126226 0.000000
0.816825 0.172430 0.000000
0.200000 -0.075000 0.000000
0.200000 -0.050000 0.000000
0.200000 -0.025000 0.000000
0.200000 0.000000 0.000000
0.766090 0.380835 0.000000
0.609658 0.163654 0.000000
0.744296 0.189007 0.000000
0.957057 0.236846 0.000000
0.728127 0.164494 0.000000
0.846639 0.184937 0.000000
0.877866 0.218898 0.000000
1.006825 0.320304 0.000000
0.866323 0.158014 0.000000
0.589555 0.124107 0.000000
1.003412 0.199898 0.000000
0.948647 0.081751 0.000000
0.429736 0.156999 0.000000
0.731565 0.099669 0.000000
0.900412 0.174564 0.000000
0.676286 0.137207 0.000000
0.915388 0.183053 0.000000
0.772584 0.129944 0.000000
0.925150 0.138712 0.000000
0.916756 0.072711 0.000000
0.225000 -0.075000 0.000000
0.225000 -0.050000 0.000000
0.225000 -0.025000 0.000000
0.225000 0.000000 0.000000
0.787747 0.236039 0.000000
0.943497 1.149298 0.000000
0.907223 0.217439 0.000000
0.521889 0.114489 0.000000
0.469186 0.102843 0.000000
0.435184 0.170902 0.000000
0.856317 0.204711 0.000000
0.988406 0.214756 0.000000
0.922296 0.225097 0.000000
0.701744 0.145985 0.000000
0.964014 0.213122 0.000000
0.535151 0.138355 0.000000
0.616715 0.048840 0.000000
0.820226 0.093507 0.000000
0.619257 0.136545 0.000000
0.750697 0.155587 0.000000
0.752673 0.073646 0.000000
0.570655 0.149215 0.000000
0.627527 0.117730 0.000000
0.642475 0.106917 0.000000
0.250000 -0.075000 0.000000
0.250000 -0.050000 0.000000
0.250000 -0.025000 0.000000
0.250000 0.000000 0.000000
0.941487 0.737267 0.000000
0.733623 0.666816 0.000000
0.712418 0.076722 0.000000
0.782293 0.204740 0.000000
0.547850 0.812478 0.000000
0.843290 0.214955 0.000000
0.583908 0.596754 0.000000
0.682283 0.384063 0.000000
0.484978 0.023133 0.000000
0.892653 0.208221 0.000000
0.509946 0.102560 0.000000
0.513950 0.185981 0.000000
0.715338 0.142109 0.000000
0.734639 0.041434 0.000000
0.656807 0.072894 0.000000
0.759260 0.179276 0.000000
0.591169 0.023808 0.000000
0.907415 0.152095 0.000000
0.500309 0.169671 0.000000
0.934514 0.217003 0.000000
0.275000 -0.075000 0.000000
0.275000 -0.050000 0.000000
0.275000 -0.025000 0.000000
0.275000 0.000000 0.000000
0.300000 -0.075000 0.000000
0.300000 -0.050000 0.000000
0.300000 -0.025000 0.000000
0.300000 0.000000 0.000000
0.325000 -0.075000 0.000000
0.325000 -0.050000 0.000000
0.325000 -0.025000 0.000000
0.325000 0.000000 0.000000
0.350000 -0.075000 0.000000
0.350000 -0.050000 0.000000
0.350000 -0.025000 0.000000
0.350000 0.000000 0.000000
0.375000 -0.075000 0.000000
0.375000 -0.050000 0.000000
0.375000 -0.025000 0.000000
0.375000 0.000000 0.000000
0.400000 -0.075000 0.000000
0.400000 -0.050000 0.000000
0.400000 -0.025000 0.000000
0.400000 0.000000 0.000000
0.425000 -0.075000 0.000000
0.425000 -0.050000 0.000000
0.425000 -0.025000 0.000000
0.425000 0.000000 0.000000
0.450000 -0.075000 0.000000
0.450000 -0.050000 0.000000
0.450000 -0.025000 0.000000
0.450000 0.000000 0.000000
0.475000 -0.075000 0.000000
0.475000 -0.050000 0.000000
0.475000 -0.025000 0.000000
0.475000 0.000000 0.000000
0.500000 -0.075000 0.000000
0.500000 -0.050000 0.000000
0.500000 -0.025000 0.000000
0.500000 0.000000 0.000000
0.525000 -0.075000 0.000000
0.525000 -0.050000 0.000000
0.525000 -0.025000 0.000000
0.525000 0.000000 0.000000
0.550000 -0.075000 0.000000
0.550000 -0.050000 0.000000
0.550000 -0.025000 0.000000
0.550000 0.000000 0.000000
0.575000 -0.075000 0.000000
0.575000 -0.050000 0.000000
0.575000 -0.025000 0.000000
0.575000 0.000000 0.000000
0.600000 -0.075000 0.000000
0.600000 -0.050000 0.000000
0.600000 -0.025000 0.000000
0.600000 0.000000 0.000000
0.625000 -0.075000 0.000000
0.625000 -0.050000 0.000000
0.625000 -0.025000 0.000000
0.625000 0.000000 0.000000
0.650000 -0.075000 0.000000
0.650000 -0.050000 0.000000
0.650000 -0.025000 0.000000
0.650000 0.000000 0.000000
0.675000 -0.075000 0.000000
0.675000 -0.050000 0.000000
0.675000 -0.025000 0.000000
0.675000 0.000000 0.000000
0.700000 -0.075000 0.000000
0.700000 -0.050000 0.000000
0.700000 -0.025000 0.000000
0.700000 0.000000 0.000000
0.725000 -0.075000 0.000000
0.725000 -0.050000 0.000000
0.725000 -0.025000 0.000000
0.725000 0.000000 0.000000
0.750000 -0.075000 0.000000
0.750000 -0.050000 0.000000
0.750000 -0.025000 0.000000
0.750000 0.000000 0.000000
0.775000 -0.075000 0.000000
0.775000 -0.050000 0.000000
0.775000 -0.025000 0.000000
0.775000 0.000000 0.000000
0.800000 -0.075000 0.000000
0.800000 -0.050000 0.000000
0.800000 -0.025000 0.000000
0.800000 0.000000 0.000000
0.825000 -0.075000 0.000000
0.825000 -0.050000 0.000000
0.825000 -0.025000 0.000000
0.825000 0.000000 0.000000
0.850000 -0.075000 0.000000
0.850000 -0.050000 0.000000
0.850000 -0.025000 0.000000
0.850000 0.000000 0.000000
0.875000 -0.075000 0.000000
0.875000 -0.050000 0.000000
0.875000 -0.025000 0.000000
0.875000 0.000000 0.000000
0.900000 -0.075000 0.000000
0.900000 -0.050000 0.000000
0.900000 -0.025000 0.000000
0.900000 0.000000 0.000000
0.925000 -0.075000 0.000000
0.925000 -0.050000 0.000000
0.925000 -0.025000 0.000000
0.925000 0.000000 0.000000
0.950000 -0.075000 0.000000
0.950000 -0.050000 0.000000
0.950000 -0.025000 0.000000
0.950000 0.000000 0.000000
0.975000 -0.075000 0.000000
0.975000 -0.050000 0.000000
0.975000 -0.025000 0.000000
0.975000 0.000000 0.000000
1.000000 -0.075000 0.000000
1.000000 -0.050000 0.000000
1.000000 -0.025000 0.000000
1.000000 0.000000 0.000000
1.025000 -0.075000 0.000000
1.025000 -0.050000 0.000000
1.025000 -0.025000 0.000000
1.025000 0.000000 0.000000
1.025000 0.025000 0.000000
1.025000 0.050000 0.000000
1.025000 0.075000 0.000000
1.025000 0.100000 0.000000
1.025000 0.125000 0.000000
1.025000 0.150000 0.000000
1.025000 0.175000 0.000000
1.025000 0.200000 0.000000
1.025000 0.225000 0.000000
1.025000 0.250000 0.000000
1.025000 0.275000 0.000000
1.025000 0.300000 0.000000
1.025000 0.325000 0.000000
1.025000 0.350000 0.000000
1.025000 0.375000 0.000000
1.025000 0.400000 0.000000
1.025000 0.425000 0.000000
1.025000 0.450000 0.000000
1.025000 0.475000 0.000000
1.025000 0.500000 0.000000
1.025000 0.525000 0.000000
1.025000 0.550000 0.000000
1.025000 0.575000 0.000000
1.025000 0.600000 0.000000
1.050000 -0.075000 0.000000
1.050000 -0.050000 0.000000
1.050000 -0.025000 0.000000
1.050000 0.000000 0.000000
1.050000 0.025000 0.000000
1.050000 0.050000 0.000000
1.050000 0.075000 0.000000
1.050000 0.100000 0.000000
1.050000 0.125000 0.000000
1.050000 0.150000 0.000000
1.050000 0.175000 0.000000
1.050000 0.200000 0.000000
1.050000 0.225000 0.000000
1.050000 0.250000 0.000000
1.050000 0.275000 0.000000
1.050000 0.300000 0.000000
1.050000 0.325000 0.000000
1.050000 0.350000 0.000000
1.050000 0.375000 0.000000
1.050000 0.400000 0.000000
1.050000 0.425000 0.000000
1.050000 0.450000 0.000000
1.050000 0.475000 0.000000
1.050000 0.500000 0.000000
1.050000 0.525000 0.000000
1.050000 0.550000 0.000000
1.050000 0.575000 0.000000
1.050000 0.600000 0.000000
1.075000 -0.075000 0.000000
1.075000 -0.050000 0.000000
1.075000 -0.025000 0.000000
1.075000 0.000000 0.000000
1.075000 0.025000 0.000000
1.075000 0.050000 0.000000
1.075000 0.075000 0.000000
1.075000 0.100000 0.000000
1.075000 0.125000 0.000000
1.075000 0.150000 0.000000
1.075000 0.175000 0.000000
1.075000 0.200000 0.000000
1.075000 0.225000 0.000000
1.075000 0.250000 0.000000
1.075000 0.275000 0.000000
1.075000 0.300000 0.000000
1.075000 0.325000 0.000000
1.075000 0.350000 0.000000
1.075000 0.375000 0.000000
1.075000 0.400000 0.000000
1.075000 0.425000 0.000000
1.075000 0.450000 0.000000
1.075000 0.475000 0.000000
1.075000 0.500000 0.000000
1.075000 0.525000 0.000000
1.075000 0.550000 0.000000
1.075000 0.575000 0.000000
1.075000 0.600000 0.000000
1.100000 -0.075000 0.000000
1.100000 -0.050000 0.000000
1.100000 -0.025000 0.000000
1.100000 0.000000 0.000000
1.100000 0.025000 0.000000
1.100000 0.050000 0.000000
1.100000 0.075000 0.000000
1.100000 0.100000 0.000000
1.100000 0.125000 0.000000
1.100000 0.150000 0.000000
1.100000 0.175000 0.000000
1.100000 0.200000 0.000000
1.100000 0.225000 0.000000
1.100000 0.250000 0.000000
1.100000 0.275000 0.000000
1.100000 0.300000 0.000000
1.100000 0.325000 0.000000
1.100000 0.350000 0.000000
1.100000 0.375000 0.000000
1.100000 0.400000 0.000000
1.100000 0.425000 0.000000
1.100000 0.450000 0.000000
1.100000 0.475000 0.000000
1.100000 0.500000 0.000000
1.100000 0.525000 0.000000
1.100000 0.550000 0.000000
1.100000 0.575000 0.000000
1.100000 0.600000 0.000000
</DataArray>
</Points>
<PointData>
<DataArray NumberOfComponents='1' type='Int32' Name='ParticleType' format='ascii'>
3
3
3
3
3
3
3
3
3
3
3
3
3
3
3
3
3
3
3
3
3
3
3
3
3
3
2
2
3
3
3
3
3
3
3
3
3
3
3
3
3
3
3
3
3
3
3
3
3
3
3
3
3
3
2
2
3
3
2
2
2
2
2
2
2
2
2
2
2
2
2
2
2
2
2
2
2
2
2
2
2
2
2
2
3
3
2
2
2
2
2
2
2
2
2
2
2
2
2
2
2
2
2
2
2
2
2
2
2
2
2
2
3
3
2
2
0
0
0
0
0
0
0
0
0
0
0
0
0
0
0
0
0
0
0
0
3
3
2
2
0
0
0
0
0
0
0
0
0
0
0
0
0
0
0
0
0
0
0
0
3
3
2
2
0
0
0
0
0
0
0
0
0
0
0
0
0
0
0
0
0
0
0
0
3
3
2
2
0
0
0
0
0
0
0
0
0
0
0
0
0
0
0
0
0
0
0
0
3
3
2
2
0
0
0
0
0
0
0
0
0
0
0
0
0
0
0
0
0
0
0
0
3
3
2
2
0
0
0
0
0
0
0
0
0
0
0
0
0
0
0
0
0
0
0
0
3
3
2
2
0
0
0
0
0
0
0
0
0
0
0
0
0
0
0
0
0
0
0
0
3
3
2
2
0
0
0
0
0
0
0
0
0
0
0
0
0
0
0
0
0
0
0
0
3
3
2
2
0
0
0
0
0
0
0
0
0
0
0
0
0
0
0
0
0
0
0
0
3
3
2
2
0
0
0
0
0
0
0
0
0
0
0
0
0
0
0
0
0
0
0
0
3
3
2
2
3
3
2
2
3
3
2
2
3
3
2
2
3
3
2
2
3
3
2
2
3
3
2
2
3
3
2
2
3
3
2
2
3
3
2
2
3
3
2
2
3
3
2
2
3
3
2
2
3
3
2
2
3
3
2
2
3
3
2
2
3
3
2
2
3
3
2
2
3
3
2
2
3
3
2
2
3
3
2
2
3
3
2
2
3
3
2
2
3
3
2
2
3
3
2
2
3
3
2
2
3
3
2
2
3
3
2
2
3
3
2
2
3
3
2
2
3
3
2
2
2
2
2
2
2
2
2
2
2
2
2
2
2
2
2
2
2
2
2
2
2
2
2
2
3
3
2
2
2
2
2
2
2
2
2
2
2
2
2
2
2
2
2
2
2
2
2
2
2
2
2
2
3
3
3
3
3
3
3
3
3
3
3
3
3
3
3
3
3
3
3
3
3
3
3
3
3
3
2
2
3
3
3
3
3
3
3
3
3
3
3
3
3
3
3
3
3
3
3
3
3
3
3
3
3
3
2
2
</DataArray>
<DataArray NumberOfComponents='1' type='Float32' Name='Velocity' format='ascii'>
0.000000
0.000000
0.000000
0.000000
0.000000
0.000000
0.000000
0.000000
0.000000
0.000000
0.000000
0.000000
0.000000
0.000000
0.000000
0.000000
0.000000
0.000000
0.000000
0.000000
0.000000
0.000000
0.000000
0.000000
0.000000
0.000000
0.000000
0.000000
0.000000
0.000000
0.000000
0.000000
0.000000
0.000000
0.000000
0.000000
0.000000
0.000000
0.000000
0.000000
0.000000
0.000000
0.000000
0.000000
0.000000
0.000000
0.000000
0.000000
0.000000
0.000000
0.000000
0.000000
0.000000
0.000000
0.000000
0.000000
0.000000
0.000000
0.000000
0.000000
0.000000
0.000000
0.000000
0.000000
0.000000
0.000000
0.000000
0.000000
0.000000
0.000000
0.000000
0.000000
0.000000
0.000000
0.000000
0.000000
0.000000
0.000000
0.000000
0.000000
0.000000
0.000000
0.000000
0.000000
0.000000
0.000000
0.000000
0.000000
0.000000
0.000000
0.000000
0.000000
0.000000
0.000000
0.000000
0.000000
0.000000
0.000000
0.000000
0.000000
0.000000
0.000000
0.000000
0.000000
0.000000
0.000000
0.000000
0.000000
0.000000
0.000000
0.000000
0.000000
0.000000
0.000000
0.000000
0.000000
0.205613
0.246493
0.391222
0.177602
0.196753
0.036255
0.267083
0.154904
0.133682
0.050499
0.489647
0.246864
0.088172
0.132797
0.271307
0.256128
0.257363
0.158404
0.092242
0.022158
0.000000
0.000000
0.000000
0.000000
0.146684
0.577336
1.551522
2.342593
1.727342
0.271161
0.985734
0.282508
0.257485
0.517842
1.279927
0.186288
0.066824
0.379288
0.092778
0.491141
0.058097
0.392494
0.195076
0.240121
0.000000
0.000000
0.000000
0.000000
0.452194
0.755284
0.380533
0.327158
0.570112
0.258028
0.316497
2.699639
0.364109
0.602190
0.075579
0.549626
0.485120
0.410783
0.358318
0.190597
0.489659
0.642448
0.267661
0.252951
0.000000
0.000000
0.000000
0.000000
0.403419
0.120284
0.617343
0.389157
0.281282
0.359110
0.483898
1.572012
0.092353
0.630131
0.510370
0.248424
0.754647
0.152674
0.745144
0.360461
0.122083
0.892646
0.786788
1.451396
0.000000
0.000000
0.000000
0.000000
0.224121
0.316226
0.352976
0.171370
0.377571
0.502645
1.475238
0.339529
0.557148
0.672498
0.437347
0.808538
0.324390
0.379862
1.151442
0.501931
0.909693
0.617585
0.560979
1.873272
0.000000
0.000000
0.000000
0.000000
0.885899
0.243102
0.470358
1.488682
0.196283
1.909540
0.272820
0.355289
0.438195
0.386828
0.189409
0.383903
0.116250
0.361703
0.672756
0.356684
0.350468
0.051079
0.287185
0.440903
0.000000
0.000000
0.000000
0.000000
1.011230
0.271410
0.383138
0.367419
0.161956
1.853026
0.126559
1.039012
1.268679
0.098397
0.890448
0.303474
0.900309
0.243320
0.165928
1.465947
0.394470
0.817901
1.210823
0.561251
0.000000
0.000000
0.000000
0.000000
2.784450
2.298044
1.755467
0.222714
1.977039
1.278516
1.090595
0.548841
0.808927
2.135311
0.441867
0.531304
2.584258
0.239585
0.560144
1.596412
0.460981
0.324304
0.205174
0.277522
0.000000
0.000000
0.000000
0.000000
1.831212
1.730064
0.996408
1.489589
0.453813
2.631834
1.024040
0.793245
0.536668
2.062637
0.575863
2.418489
0.826613
0.698431
2.355959
1.061590
0.916822
2.877077
1.970451
1.198913
0.000000
0.000000
0.000000
0.000000
2.463827
2.460214
0.507911
1.077675
2.400400
1.315310
2.615363
2.874972
0.536151
0.787189
1.076982
2.639315
1.857417
0.187700
1.332669
1.817259
0.295432
0.749015
2.384094
0.555152
0.000000
0.000000
0.000000
0.000000
0.000000
0.000000
0.000000
0.000000
0.000000
0.000000
0.000000
0.000000
0.000000
0.000000
0.000000
0.000000
0.000000
0.000000
0.000000
0.000000
0.000000
0.000000
0.000000
0.000000
0.000000
0.000000
0.000000
0.000000
0.000000
0.000000
0.000000
0.000000
0.000000
0.000000
0.000000
0.000000
0.000000
0.000000
0.000000
0.000000
0.000000
0.000000
0.000000
0.000000
0.000000
0.000000
0.000000
0.000000
0.000000
0.000000
0.000000
0.000000
0.000000
0.000000
0.000000
0.000000
0.000000
0.000000
0.000000
0.000000
0.000000
0.000000
0.000000
0.000000
0.000000
0.000000
0.000000
0.000000
0.000000
0.000000
0.000000
0.000000
0.000000
0.000000
0.000000
0.000000
0.000000
0.000000
0.000000
0.000000
0.000000
0.000000
0.000000
0.000000
0.000000
0.000000
0.000000
0.000000
0.000000
0.000000
0.000000
0.000000
0.000000
0.000000
0.000000
0.000000
0.000000
0.000000
0.000000
0.000000
0.000000
0.000000
0.000000
0.000000
0.000000
0.000000
0.000000
0.000000
0.000000
0.000000
0.000000
0.000000
0.000000
0.000000
0.000000
0.000000
0.000000
0.000000
0.000000
0.000000
0.000000
0.000000
0.000000
0.000000
0.000000
0.000000
0.000000
0.000000
0.000000
0.000000
0.000000
0.000000
0.000000
0.000000
0.000000
0.000000
0.000000
0.000000
0.000000
0.000000
0.000000
0.000000
0.000000
0.000000
0.000000
0.000000
0.000000
0.000000
0.000000
0.000000
0.000000
0.000000
0.000000
0.000000
0.000000
0.000000
0.000000
0.000000
0.000000
0.000000
0.000000
0.000000
0.000000
0.000000
0.000000
0.000000
0.000000
0.000000
0.000000
0.000000
0.000000
0.000000
0.000000
0.000000
0.000000
0.000000
0.000000
0.000000
0.000000
0.000000
0.000000
0.000000
0.000000
0.000000
0.000000
0.000000
0.000000
0.000000
0.000000
0.000000
0.000000
0.000000
0.000000
0.000000
0.000000
0.000000
0.000000
0.000000
0.000000
0.000000
0.000000
0.000000
0.000000
0.000000
0.000000
0.000000
0.000000
0.000000
0.000000
0.000000
0.000000
0.000000
0.000000
0.000000
0.000000
0.000000
0.000000
0.000000
0.000000
0.000000
0.000000
0.000000
0.000000
0.000000
0.000000
0.000000
0.000000
0.000000
0.000000
0.000000
0.000000
0.000000
</DataArray>
<DataArray NumberOfComponents='1' type='Float32' Name='pressure' format='ascii'>
0.000000
0.000000
0.000000
0.000000
0.000000
0.000000
0.000000
0.000000
0.000000
0.000000
0.000000
0.000000
0.000000
0.000000
0.000000
0.000000
0.000000
0.000000
0.000000
0.000000
0.000000
0.000000
0.000000
0.000000
0.000000
0.000000
0.000000
0.000000
0.000000
0.000000
0.000000
0.000000
0.000000
0.000000
0.000000
0.000000
0.000000
0.000000
0.000000
0.000000
0.000000
0.000000
0.000000
0.000000
0.000000
0.000000
0.000000
0.000000
0.000000
0.000000
0.000000
0.000000
0.000000
0.000000
0.000000
0.000000
0.000000
0.000000
881.313416
680.966248
1098.424316
1024.064209
0.000000
0.000000
0.000000
0.000000
0.000000
0.000000
0.000000
0.000000
0.000000
0.000000
0.000000
0.000000
0.000000
0.000000
0.000000
0.000000
0.000000
0.000000
0.000000
0.000000
0.000000
0.000000
0.000000
0.000000
1118.769775
148.594940
0.000000
0.000000
0.000000
0.000000
0.000000
0.000000
0.000000
0.000000
0.000000
0.000000
0.000000
0.000000
0.000000
0.000000
0.000000
0.000000
0.000000
0.000000
0.000000
0.000000
0.000000
0.000000
0.000000
0.000000
0.000000
0.000000
2827.288574
1103.210815
1385.714722
1554.127808
0.000000
0.000000
297.102386
535.517700
0.000000
0.000000
746.380737
0.000000
0.000000
0.000000
640.334595
665.168640
0.000000
0.000000
1045.458374
108.778801
0.000000
0.000000
0.000000
0.000000
2739.417236
829.002625
683.606628
0.000000
0.000000
0.000000
0.000000
2566.235840
1388.568604
120.359879
0.000000
0.000000
0.000000
0.000000
0.000000
0.000000
0.000000
0.000000
0.000000
0.000000
0.000000
0.000000
0.000000
0.000000
625.372131
0.000000
1339.818359
0.000000
1264.087036
0.000000
0.000000
2568.874756
1183.022949
0.000000
359.714783
2035.809082
0.000000
107.255196
0.000000
0.000000
0.000000
0.000000
0.000000
0.000000
0.000000
0.000000
0.000000
0.000000
1193.536377
1311.583740
0.000000
0.000000
554.673889
767.218140
0.000000
1485.129517
615.069458
0.000000
1788.493042
2293.351318
0.000000
1026.779907
1552.086304
896.557800
0.000000
0.000000
0.000000
1205.417358
1777.248535
0.000000
0.000000
0.000000
0.000000
0.000000
1456.406372
0.000000
1324.084595
1610.669556
0.000000
0.000000
0.000000
1920.237183
0.000000
1377.438965
404.662231
0.000000
343.645477
1777.643311
0.000000
51.752186
576.801270
0.000000
388.052032
0.000000
0.000000
0.000000
499.789001
0.000000
1603.079102
395.373901
0.000000
0.000000
774.731506
0.000000
847.731384
1127.417603
255.608307
955.532532
913.371338
0.000000
1557.714722
2212.152832
517.267273
1420.492554
1326.880493
810.624146
744.173523
354.113922
0.000000
0.000000
66.689255
0.000000
0.000000
0.000000
1073.071533
0.000000
0.000000
0.000000
2482.015381
0.000000
52.449986
1318.147339
175.617523
342.755310
2843.033447
1264.550903
698.499695
0.000000
874.211548
0.000000
1298.746338
0.000000
0.000000
0.000000
1362.244141
0.000000
0.000000
0.000000
0.000000
0.000000
0.000000
1829.887695
0.000000
0.000000
1470.539185
0.000000
0.000000
0.000000
0.000000
0.000000
0.000000
0.000000
1367.946655
0.000000
0.000000
0.000000
0.000000
0.000000
2154.300781
16.796671
0.000000
0.000000
972.028564
0.000000
0.000000
0.000000
0.000000
0.000000
0.000000
0.000000
0.000000
0.000000
0.000000
730.280701
0.000000
0.000000
210.663223
0.000000
0.000000
3379.007568
0.000000
0.000000
842.459656
0.000000
0.000000
0.000000
722.206360
0.000000
0.000000
0.000000
0.000000
0.000000
0.000000
170.212830
0.000000
0.000000
658.382751
1478.494263
1654.516846
0.000000
0.000000
0.000000
0.000000
0.000000
0.000000
0.000000
1956.385742
661.541382
0.000000
0.000000
1859.729004
0.000000
0.000000
0.000000
1713.801270
296.581329
0.000000
0.000000
951.103943
714.525635
0.000000
0.000000
1251.555298
778.908142
0.000000
0.000000
693.400635
593.705811
0.000000
0.000000
510.131134
613.745789
0.000000
0.000000
272.278687
0.000000
0.000000
0.000000
208.385895
0.000000
0.000000
0.000000
80.007835
0.000000
0.000000
0.000000
846.020569
0.000000
0.000000
0.000000
1803.840698
3303.924561
0.000000
0.000000
1030.557983
2038.576050
0.000000
0.000000
1783.358398
652.811401
0.000000
0.000000
1836.565674
1095.335083
0.000000
0.000000
2512.006348
645.898621
0.000000
0.000000
1504.848022
0.000000
0.000000
0.000000
602.753540
0.000000
0.000000
0.000000
2391.750488
1474.348999
0.000000
0.000000
1137.139160
0.000000
0.000000
0.000000
545.640808
0.000000
0.000000
0.000000
2982.742188
2758.026123
0.000000
0.000000
2832.887207
1198.455566
0.000000
0.000000
3536.505859
3170.385742
0.000000
0.000000
3665.446533
2971.330322
0.000000
0.000000
3531.241211
1650.799683
0.000000
0.000000
3938.272949
3313.552490
0.000000
0.000000
1271.446289
0.000000
0.000000
0.000000
2796.960449
978.061890
0.000000
0.000000
2841.442139
1886.334717
0.000000
0.000000
1786.165771
1038.081177
1101.417358
1773.993408
1268.426880
751.996094
0.000000
1926.885010
0.000000
0.000000
0.000000
0.000000
0.000000
0.000000
0.000000
0.000000
0.000000
0.000000
0.000000
0.000000
0.000000
0.000000
0.000000
0.000000
0.000000
0.000000
0.000000
0.000000
1625.234131
1533.826782
1515.777344
1955.903931
1271.227539
1111.431152
523.207031
1759.905762
0.000000
892.005615
0.000000
0.000000
0.000000
1284.631836
3074.764648
0.000000
0.000000
0.000000
0.000000
0.000000
0.000000
0.000000
0.000000
0.000000
0.000000
0.000000
0.000000
0.000000
0.000000
0.000000
0.000000
0.000000
0.000000
0.000000
0.000000
0.000000
0.000000
0.000000
0.000000
0.000000
0.000000
0.000000
0.000000
0.000000
0.000000
0.000000
0.000000
0.000000
0.000000
0.000000
0.000000
0.000000
0.000000
0.000000
0.000000
0.000000
0.000000
0.000000
0.000000
0.000000
0.000000
0.000000
0.000000
0.000000
0.000000
0.000000
0.000000
0.000000
0.000000
0.000000
0.000000
0.000000
0.000000
0.000000
0.000000
0.000000
0.000000
0.000000
0.000000
0.000000
0.000000
0.000000
</DataArray>
</PointData>
<Cells>
<DataArray type='Int32' Name='connectivity' format='ascii'>
0
1
2
3
4
5
6
7
8
9
10
11
12
13
14
15
16
17
18
19
20
21
22
23
24
25
26
27
28
29
30
31
32
33
34
35
36
37
38
39
40
41
42
43
44
45
46
47
48
49
50
51
52
53
54
55
56
57
58
59
60
61
62
63
64
65
66
67
68
69
70
71
72
73
74
75
76
77
78
79
80
81
82
83
84
85
86
87
88
89
90
91
92
93
94
95
96
97
98
99
100
101
102
103
104
105
106
107
108
109
110
111
112
113
114
115
116
117
118
119
120
121
122
123
124
125
126
127
128
129
130
131
132
133
134
135
136
137
138
139
140
141
142
143
144
145
146
147
148
149
150
151
152
153
154
155
156
157
158
159
160
161
162
163
164
165
166
167
168
169
170
171
172
173
174
175
176
177
178
179
180
181
182
183
184
185
186
187
188
189
190
191
192
193
194
195
196
197
198
199
200
201
202
203
204
205
206
207
208
209
210
211
212
213
214
215
216
217
218
219
220
221
222
223
224
225
226
227
228
229
230
231
232
233
234
235
236
237
238
239
240
241
242
243
244
245
246
247
248
249
250
251
252
253
254
255
256
257
258
259
260
261
262
263
264
265
266
267
268
269
270
271
272
273
274
275
276
277
278
279
280
281
282
283
284
285
286
287
288
289
290
291
292
293
294
295
296
297
298
299
300
301
302
303
304
305
306
307
308
309
310
311
312
313
314
315
316
317
318
319
320
321
322
323
324
325
326
327
328
329