<?xml version='1.0' encoding='UTF-8'?>
<VTKFile xmlns='VTK' byte_order='LittleEndian' version='0.1' type='UnstructuredGrid'>
<UnstructuredGrid>
<Piece NumberOfCells='584' NumberOfPoints='584'>
<Points>
<DataArray NumberOfComponents='3' type='Float32' Name='Position' format='ascii'>
-0.075000 -0.075000 0.000000
-0.075000 -0.050000 0.000000
-0.075000 -0.025000 0.000000
-0.075000 0.000000 0.000000
-0.075000 0.025000 0.000000
-0.075000 0.050000 0.000000
-0.075000 0.075000 0.000000
-0.075000 0.100000 0.000000
-0.075000 0.125000 0.000000
-0.075000 0.150000 0.000000
-0.075000 0.175000 0.000000
-0.075000 0.200000 0.000000
-0.075000 0.225000 0.000000
-0.075000 0.250000 0.000000
-0.075000 0.275000 0.000000
-0.075000 0.300000 0.000000
-0.075000 0.325000 0.000000
-0.075000 0.350000 0.000000
-0.075000 0.375000 0.000000
-0.075000 0.400000 0.000000
-0.075000 0.425000 0.000000
-0.075000 0.450000 0.000000
-0.075000 0.475000 0.000000
-0.075000 0.500000 0.000000
-0.075000 0.525000 0.000000
-0.075000 0.550000 0.000000
-0.075000 0.575000 0.000000
-0.075000 0.600000 0.000000
-0.050000 -0.075000 0.000000
-0.050000 -0.050000 0.000000
-0.050000 -0.025000 0.000000
-0.050000 0.000000 0.000000
-0.050000 0.025000 0.000000
-0.050000 0.050000 0.000000
-0.050000 0.075000 0.000000
-0.050000 0.100000 0.000000
-0.050000 0.125000 0.000000
-0.050000 0.150000 0.000000
-0.050000 0.175000 0.000000
-0.050000 0.200000 0.000000
-0.050000 0.225000 0.000000
-0.050000 0.250000 0.000000
-0.050000 0.275000 0.000000
-0.050000 0.300000 0.000000
-0.050000 0.325000 0.000000
-0.050000 0.350000 0.000000
-0.050000 0.375000 0.000000
-0.050000 0.400000 0.000000
-0.050000 0.425000 0.000000
-0.050000 0.450000 0.000000
-0.050000 0.475000 0.000000
-0.050000 0.500000 0.000000
-0.050000 0.525000 0.000000
-0.050000 0.550000 0.000000
-0.050000 0.575000 0.000000
-0.050000 0.600000 0.000000
-0.025000 -0.075000 0.000000
-0.025000 -0.050000 0.000000
-0.025000 -0.025000 0.000000
-0.025000 0.000000 0.000000
-0.025000 0.025000 0.000000
-0.025000 0.050000 0.000000
-0.025000 0.075000 0.000000
-0.025000 0.100000 0.000000
-0.025000 0.125000 0.000000
-0.025000 0.150000 0.000000
-0.025000 0.175000 0.000000
-0.025000 0.200000 0.000000
-0.025000 0.225000 0.000000
-0.025000 0.250000 0.000000
-0.025000 0.275000 0.000000
-0.025000 0.300000 0.000000
-0.025000 0.325000 0.000000
-0.025000 0.350000 0.000000
-0.025000 0.375000 0.000000
-0.025000 0.400000 0.000000
-0.025000 0.425000 0.000000
-0.025000 0.450000 0.000000
-0.025000 0.475000 0.000000
-0.025000 0.500000 0.000000
-0.025000 0.525000 0.000000
-0.025000 0.550000 0.000000
-0.025000 0.575000 0.000000
-0.025000 0.600000 0.000000
0.000000 -0.075000 0.000000
0.000000 -0.050000 0.000000
0.000000 -0.025000 0.000000
0.000000 0.000000 0.000000
0.000000 0.025000 0.000000
0.000000 0.050000 0.000000
0.000000 0.075000 0.000000
0.000000 0.100000 0.000000
0.000000 0.125000 0.000000
0.000000 0.150000 0.000000
0.000000 0.175000 0.000000
0.000000 0.200000 0.000000
0.000000 0.225000 0.000000
0.000000 0.250000 0.000000
0.000000 0.275000 0.000000
0.000000 0.300000 0.000000
0.000000 0.325000 0.000000
0.000000 0.350000 0.000000
0.000000 0.375000 0.000000
0.000000 0.400000 0.000000
0.000000 0.425000 0.000000
0.000000 0.450000 0.000000
0.000000 0.475000 0.000000
0.000000 0.500000 0.000000
0.000000 0.525000 0.000000
0.000000 0.550000 0.000000
0.000000 0.575000 0.000000
0.000000 0.600000 0.000000
0.025000 -0.075000 0.000000
0.025000 -0.050000 0.000000
0.025000 -0.025000 0.000000
0.025000 0.000000 0.000000
0.240160 0.073768 0.000000
0.154978 0.133716 0.000000
0.235699 0.045218 0.000000
0.222227 0.025645 0.000000
0.257691 0.046787 0.000000
0.158129 0.057055 0.000000
0.330866 0.023110 0.000000
0.255481 0.090839 0.000000
0.204826 0.118948 0.000000
0.162548 0.205229 0.000000
0.252397 0.023975 0.000000
0.140824 0.081880 0.000000
0.193222 0.023000 0.000000
0.165723 0.023129 0.000000
0.140413 0.113936 0.000000
0.090506 0.039868 0.000000
0.029353 0.140201 0.000000
0.101868 0.023215 0.000000
0.039263 0.098801 0.000000
0.213818 0.065417 0.000000
0.050000 -0.075000 0.000000
0.050000 -0.050000 0.000000
0.050000 -0.025000 0.000000
0.050000 0.000000 0.000000
0.111858 0.176139 0.000000
0.118860 0.092872 0.000000
0.087814 0.146628 0.000000
0.040019 0.021430 0.000000
0.021143 0.087373 0.000000
0.429303 0.073302 0.000000
0.220528 0.129493 0.000000
0.588678 0.024648 0.000000
0.092957 0.123597 0.000000
0.251113 0.224639 0.000000
0.143445 0.038090 0.000000
0.255508 0.144410 0.000000
0.036217 0.162993 0.000000
0.260479 0.233891 0.000000
0.178437 0.045150 0.000000
0.055943 0.046678 0.000000
0.230829 0.101383 0.000000
0.277958 0.085238 0.000000
0.093845 0.196805 0.000000
0.107912 0.059964 0.000000
0.075000 -0.075000 0.000000
0.075000 -0.050000 0.000000
0.075000 -0.025000 0.000000
0.075000 0.000000 0.000000
0.162815 0.083947 0.000000
0.177546 0.130141 0.000000
0.407981 0.100363 0.000000
0.366331 0.022508 0.000000
0.408787 0.132439 0.000000
0.558225 0.116210 0.000000
0.539076 0.104621 0.000000
0.069022 0.081259 0.000000
0.305432 0.101966 0.000000
0.559594 0.042837 0.000000
0.441063 0.026053 0.000000
0.102561 0.084381 0.000000
0.251185 0.114027 0.000000
0.254364 0.161671 0.000000
0.307253 0.080478 0.000000
0.078781 0.060299 0.000000
0.164473 0.110715 0.000000
0.049940 0.069727 0.000000
0.187092 0.093339 0.000000
0.204680 0.045451 0.000000
0.100000 -0.075000 0.000000
0.100000 -0.050000 0.000000
0.100000 -0.025000 0.000000
0.100000 0.000000 0.000000
0.483556 0.021729 0.000000
0.333621 0.209216 0.000000
0.473120 0.115200 0.000000
0.785123 0.022483 0.000000
0.272188 0.067486 0.000000
0.711867 0.026137 0.000000
0.543418 0.061812 0.000000
0.289736 0.043536 0.000000
0.660073 0.022559 0.000000
0.660606 0.041927 0.000000
0.460605 0.029268 0.000000
0.316520 0.124742 0.000000
0.487839 0.085801 0.000000
0.624926 0.052563 0.000000
0.065812 0.158877 0.000000
0.279121 0.024108 0.000000
0.508666 0.064392 0.000000
0.308843 0.054413 0.000000
0.342253 0.103964 0.000000
0.137007 0.203574 0.000000
0.125000 -0.075000 0.000000
0.125000 -0.050000 0.000000
0.125000 -0.025000 0.000000
0.125000 0.000000 0.000000
0.692520 0.053931 0.000000
0.589619 0.069797 0.000000
0.980466 0.064109 0.000000
0.838612 0.025667 0.000000
0.509808 0.084644 0.000000
0.608442 0.035312 0.000000
0.086384 0.179093 0.000000
0.450013 0.063025 0.000000
0.787153 0.067587 0.000000
0.721502 0.064503 0.000000
0.815909 0.072427 0.000000
0.481672 0.047550 0.000000
0.504213 0.041952 0.000000
0.355466 0.149828 0.000000
0.414971 0.027075 0.000000
0.378053 0.156235 0.000000
0.216612 0.178921 0.000000
0.185629 0.072383 0.000000
0.388379 0.132176 0.000000
0.069850 0.117711 0.000000
0.150000 -0.075000 0.000000
0.150000 -0.050000 0.000000
0.150000 -0.025000 0.000000
0.150000 0.000000 0.000000
0.179244 0.175141 0.000000
0.956008 0.022879 0.000000
0.642049 0.058486 0.000000
0.333767 0.051810 0.000000
0.889042 0.022726 0.000000
0.212371 0.089711 0.000000
0.903811 0.053296 0.000000
0.436330 0.159889 0.000000
0.953679 0.057038 0.000000
0.461450 0.146251 0.000000
0.929549 0.023632 0.000000
0.691979 0.025000 0.000000
0.857286 0.066054 0.000000
0.802667 0.075035 0.000000
0.753882 0.023710 0.000000
0.565395 0.071250 0.000000
0.629827 0.021915 0.000000
0.591118 0.089029 0.000000
0.616937 0.092677 0.000000
0.292476 0.147641 0.000000
0.175000 -0.075000 0.000000
0.175000 -0.050000 0.000000
0.175000 -0.025000 0.000000
0.175000 0.000000 0.000000
0.120753 0.121252 0.000000
0.525442 0.114114 0.000000
0.867850 0.054371 0.000000
0.764212 0.055100 0.000000
0.988557 0.020199 0.000000
0.142601 0.157402 0.000000
0.867843 0.024923 0.000000
0.379261 0.051118 0.000000
0.402624 0.057193 0.000000
0.909116 0.037553 0.000000
0.473510 0.069876 0.000000
0.745267 0.078385 0.000000
0.361613 0.098314 0.000000
0.944122 0.047130 0.000000
0.981950 0.043206 0.000000
0.425837 0.048020 0.000000
1.006813 0.042992 0.000000
0.451311 0.086463 0.000000
0.109365 0.144832 0.000000
0.360234 0.124029 0.000000
0.200000 -0.075000 0.000000
0.200000 -0.050000 0.000000
0.200000 -0.025000 0.000000
0.200000 0.000000 0.000000
0.337135 0.128236 0.000000
0.128826 0.023267 0.000000
0.291223 0.117519 0.000000
0.811695 0.023662 0.000000
0.396885 0.079675 0.000000
0.333094 0.185291 0.000000
0.590610 0.048340 0.000000
0.976187 0.077501 0.000000
0.340078 0.164817 0.000000
0.080512 0.102530 0.000000
0.791848 0.043480 0.000000
0.631362 0.083451 0.000000
0.067200 0.024729 0.000000
0.437590 0.172655 0.000000
0.521394 0.022836 0.000000
0.195655 0.175453 0.000000
0.706660 0.062411 0.000000
0.364639 0.205914 0.000000
0.845004 0.045249 0.000000
0.669157 0.062052 0.000000
0.225000 -0.075000 0.000000
0.225000 -0.050000 0.000000
0.225000 -0.025000 0.000000
0.225000 0.000000 0.000000
0.350985 0.071105 0.000000
0.820071 0.050359 0.000000
0.519862 0.135368 0.000000
0.274839 0.196306 0.000000
0.047608 0.168738 0.000000
0.087169 0.209950 0.000000
0.437246 0.139368 0.000000
0.895973 0.072092 0.000000
0.531902 0.042404 0.000000
0.028499 0.114296 0.000000
0.550471 0.084930 0.000000
0.213213 0.198611 0.000000
0.393394 0.024634 0.000000
0.432610 0.098750 0.000000
0.127551 0.057414 0.000000
0.200367 0.145022 0.000000
0.499786 0.108457 0.000000
0.020815 0.036618 0.000000
0.273710 0.128513 0.000000
0.356268 0.040828 0.000000
0.250000 -0.075000 0.000000
0.250000 -0.050000 0.000000
0.250000 -0.025000 0.000000
0.250000 0.000000 0.000000
0.734881 0.028448 0.000000
0.353960 0.183051 0.000000
0.259758 0.209356 0.000000
0.328252 0.076437 0.000000
0.309837 0.025206 0.000000
0.297799 0.175971 0.000000
0.127581 0.162173 0.000000
0.304327 0.198256 0.000000
0.277666 0.179579 0.000000
0.442773 0.118555 0.000000
0.233416 0.147410 0.000000
0.052467 0.136636 0.000000
0.176537 0.157213 0.000000
0.558192 0.020940 0.000000
0.389206 0.112129 0.000000
0.374868 0.074890 0.000000
0.311019 0.152645 0.000000
0.748038 0.056585 0.000000
0.031472 0.057529 0.000000
0.470489 0.129911 0.000000
0.275000 -0.075000 0.000000
0.275000 -0.050000 0.000000
0.275000 -0.025000 0.000000
0.275000 0.000000 0.000000
0.300000 -0.075000 0.000000
0.300000 -0.050000 0.000000
0.300000 -0.025000 0.000000
0.300000 0.000000 0.000000
0.325000 -0.075000 0.000000
0.325000 -0.050000 0.000000
0.325000 -0.025000 0.000000
0.325000 0.000000 0.000000
0.350000 -0.075000 0.000000
0.350000 -0.050000 0.000000
0.350000 -0.025000 0.000000
0.350000 0.000000 0.000000
0.375000 -0.075000 0.000000
0.375000 -0.050000 0.000000
0.375000 -0.025000 0.000000
0.375000 0.000000 0.000000
0.400000 -0.075000 0.000000
0.400000 -0.050000 0.000000
0.400000 -0.025000 0.000000
0.400000 0.000000 0.000000
0.425000 -0.075000 0.000000
0.425000 -0.050000 0.000000
0.425000 -0.025000 0.000000
0.425000 0.000000 0.000000
0.450000 -0.075000 0.000000
0.450000 -0.050000 0.000000
0.450000 -0.025000 0.000000
0.450000 0.000000 0.000000
0.475000 -0.075000 0.000000
0.475000 -0.050000 0.000000
0.475000 -0.025000 0.000000
0.475000 0.000000 0.000000
0.500000 -0.075000 0.000000
0.500000 -0.050000 0.000000
0.500000 -0.025000 0.000000
0.500000 0.000000 0.000000
0.525000 -0.075000 0.000000
0.525000 -0.050000 0.000000
0.525000 -0.025000 0.000000
0.525000 0.000000 0.000000
0.550000 -0.075000 0.000000
0.550000 -0.050000 0.000000
0.550000 -0.025000 0.000000
0.550000 0.000000 0.000000
0.575000 -0.075000 0.000000
0.575000 -0.050000 0.000000
0.575000 -0.025000 0.000000
0.575000 0.000000 0.000000
0.600000 -0.075000 0.000000
0.600000 -0.050000 0.000000
0.600000 -0.025000 0.000000
0.600000 0.000000 0.000000
0.625000 -0.075000 0.000000
0.625000 -0.050000 0.000000
0.625000 -0.025000 0.000000
0.625000 0.000000 0.000000
0.650000 -0.075000 0.000000
0.650000 -0.050000 0.000000
0.650000 -0.025000 0.000000
0.650000 0.000000 0.000000
0.675000 -0.075000 0.000000
0.675000 -0.050000 0.000000
0.675000 -0.025000 0.000000
0.675000 0.000000 0.000000
0.700000 -0.075000 0.000000
0.700000 -0.050000 0.000000
0.700000 -0.025000 0.000000
0.700000 0.000000 0.000000
0.725000 -0.075000 0.000000
0.725000 -0.050000 0.000000
0.725000 -0.025000 0.000000
0.725000 0.000000 0.000000
0.750000 -0.075000 0.000000
0.750000 -0.050000 0.000000
0.750000 -0.025000 0.000000
0.750000 0.000000 0.000000
0.775000 -0.075000 0.000000
0.775000 -0.050000 0.000000
0.775000 -0.025000 0.000000
0.775000 0.000000 0.000000
0.800000 -0.075000 0.000000
0.800000 -0.050000 0.000000
0.800000 -0.025000 0.000000
0.800000 0.000000 0.000000
0.825000 -0.075000 0.000000
0.825000 -0.050000 0.000000
0.825000 -0.025000 0.000000
0.825000 0.000000 0.000000
0.850000 -0.075000 0.000000
0.850000 -0.050000 0.000000
0.850000 -0.025000 0.000000
0.850000 0.000000 0.000000
0.875000 -0.075000 0.000000
0.875000 -0.050000 0.000000
0.875000 -0.025000 0.000000
0.875000 0.000000 0.000000
0.900000 -0.075000 0.000000
0.900000 -0.050000 0.000000
0.900000 -0.025000 0.000000
0.900000 0.000000 0.000000
0.925000 -0.075000 0.000000
0.925000 -0.050000 0.000000
0.925000 -0.025000 0.000000
0.925000 0.000000 0.000000
0.950000 -0.075000 0.000000
0.950000 -0.050000 0.000000
0.950000 -0.025000 0.000000
0.950000 0.000000 0.000000
0.975000 -0.075000 0.000000
0.975000 -0.050000 0.000000
0.975000 -0.025000 0.000000
0.975000 0.000000 0.000000
1.000000 -0.075000 0.000000
1.000000 -0.050000 0.000000
1.000000 -0.025000 0.000000
1.000000 0.000000 0.000000
1.025000 -0.075000 0.000000
1.025000 -0.050000 0.000000
1.025000 -0.025000 0.000000
1.025000 0.000000 0.000000
1.025000 0.025000 0.000000
1.025000 0.050000 0.000000
1.025000 0.075000 0.000000
1.025000 0.100000 0.000000
1.025000 0.125000 0.000000
1.025000 0.150000 0.000000
1.025000 0.175000 0.000000
1.025000 0.200000 0.000000
1.025000 0.225000 0.000000
1.025000 0.250000 0.000000
1.025000 0.275000 0.000000
1.025000 0.300000 0.000000
1.025000 0.325000 0.000000
1.025000 0.350000 0.000000
1.025000 0.375000 0.000000
1.025000 0.400000 0.000000
1.025000 0.425000 0.000000
1.025000 0.450000 0.000000
1.025000 0.475000 0.000000
1.025000 0.500000 0.000000
1.025000 0.525000 0.000000
1.025000 0.550000 0.000000
1.025000 0.575000 0.000000
1.025000 0.600000 0.000000
1.050000 -0.075000 0.000000
1.050000 -0.050000 0.000000
1.050000 -0.025000 0.000000
1.050000 0.000000 0.000000
1.050000 0.025000 0.000000
1.050000 0.050000 0.000000
1.050000 0.075000 0.000000
1.050000 0.100000 0.000000
1.050000 0.125000 0.000000
1.050000 0.150000 0.000000
1.050000 0.175000 0.000000
1.050000 0.200000 0.000000
1.050000 0.225000 0.000000
1.050000 0.250000 0.000000
1.050000 0.275000 0.000000
1.050000 0.300000 0.000000
1.050000 0.325000 0.000000
1.050000 0.350000 0.000000
1.050000 0.375000 0.000000
1.050000 0.400000 0.000000
1.050000 0.425000 0.000000
1.050000 0.450000 0.000000
1.050000 0.475000 0.000000
1.050000 0.500000 0.000000
1.050000 0.525000 0.000000
1.050000 0.550000 0.000000
1.050000 0.575000 0.000000
1.050000 0.600000 0.000000
1.075000 -0.075000 0.000000
1.075000 -0.050000 0.000000
1.075000 -0.025000 0.000000
1.075000 0.000000 0.000000
1.075000 0.025000 0.000000
1.075000 0.050000 0.000000
1.075000 0.075000 0.000000
1.075000 0.100000 0.000000
1.075000 0.125000 0.000000
1.075000 0.150000 0.000000
1.075000 0.175000 0.000000
1.075000 0.200000 0.000000
1.075000 0.225000 0.000000
1.075000 0.250000 0.000000
1.075000 0.275000 0.000000
1.075000 0.300000 0.000000
1.075000 0.325000 0.000000
1.075000 0.350000 0.000000
1.075000 0.375000 0.000000
1.075000 0.400000 0.000000
1.075000 0.425000 0.000000
1.075000 0.450000 0.000000
1.075000 0.475000 0.000000
1.075000 0.500000 0.000000
1.075000 0.525000 0.000000
1.075000 0.550000 0.000000
1.075000 0.575000 0.000000
1.075000 0.600000 0.000000
1.100000 -0.075000 0.000000
1.100000 -0.050000 0.000000
1.100000 -0.025000 0.000000
1.100000 0.000000 0.000000
1.100000 0.025000 0.000000
1.100000 0.050000 0.000000
1.100000 0.075000 0.000000
1.100000 0.100000 0.000000
1.100000 0.125000 0.000000
1.100000 0.150000 0.000000
1.100000 0.175000 0.000000
1.100000 0.200000 0.000000
1.100000 0.225000 0.000000
1.100000 0.250000 0.000000
1.100000 0.275000 0.000000
1.100000 0.300000 0.000000
1.100000 0.325000 0.000000
1.100000 0.350000 0.000000
1.100000 0.375000 0.000000
1.100000 0.400000 0.000000
1.100000 0.425000 0.000000
1.100000 0.450000 0.000000
1.100000 0.475000 0.000000
1.100000 0.500000 0.000000
1.100000 0.525000 0.000000
1.100000 0.550000 0.000000
1.100000 0.575000 0.000000
1.100000 0.600000 0.000000
</DataArray>
</Points>
<PointData>
<DataArray NumberOfComponents='1' type='Int32' Name='ParticleType' format='ascii'>
3
3
3
3
3
3
3
3
3
3
3
3
3
3
3
3
3
3
3
3
3
3
3
3
3
3
2
2
3
3
3
3
3
3
3
3
3
3
3
3
3
3
3
3
3
3
3
3
3
3
3
3
3
3
2
2
3
3
2
2
2
2
2
2
2
2
2
2
2
2
2
2
2
2
2
2
2
2
2
2
2
2
2
2
3
3
2
2
2
2
2
2
2
2
2
2
2
2
2
2
2
2
2
2
2
2
2
2
2
2
2
2
3
3
2
2
0
0
0
0
0
0
0
0
0
0
0
0
0
0
0
0
0
0
0
0
3
3
2
2
0
0
0
0
0
0
0
0
0
0
0
0
0
0
0
0
0
0
0
0
3
3
2
2
0
0
0
0
0
0
0
0
0
0
0
0
0
0
0
0
0
0
0
0
3
3
2
2
0
0
0
0
0
0
0
0
0
0
0
0
0
0
0
0
0
0
0
0
3
3
2
2
0
0
0
0
0
0
0
0
0
0
0
0
0
0
0
0
0
0
0
0
3
3
2
2
0
0
0
0
0
0
0
0
0
0
0
0
0
0
0
0
0
0
0
0
3
3
2
2
0
0
0
0
0
0
0
0
0
0
0
0
0
0
0
0
0
0
0
0
3
3
2
2
0
0
0
0
0
0
0
0
0
0
0
0
0
0
0
0
0
0
0
0
3
3
2
2
0
0
0
0
0
0
0
0
0
0
0
0
0
0
0
0
0
0
0
0
3
3
2
2
0
0
0
0
0
0
0
0
0
0
0
0
0
0
0
0
0
0
0
0
3
3
2
2
3
3
2
2
3
3
2
2
3
3
2
2
3
3
2
2
3
3
2
2
3
3
2
2
3
3
2
2
3
3
2
2
3
3
2
2
3
3
2
2
3
3
2
2
3
3
2
2
3
3
2
2
3
3
2
2
3
3
2
2
3
3
2
2
3
3
2
2
3
3
2
2
3
3
2
2
3
3
2
2
3
3
2
2
3
3
2
2
3
3
2
2
3
3
2
2
3
3
2
2
3
3
2
2
3
3
2
2
3
3
2
2
3
3
2
2
3
3
2
2
2
2
2
2
2
2
2
2
2
2
2
2
2
2
2
2
2
2
2
2
2
2
2
2
3
3
2
2
2
2
2
2
2
2
2
2
2
2
2
2
2
2
2
2
2
2
2
2
2
2
2
2
3
3
3
3
3
3
3
3
3
3
3
3
3
3
3
3
3
3
3
3
3
3
3
3
3
3
2
2
3
3
3
3
3
3
3
3
3
3
3
3
3
3
3
3
3
3
3
3
3
3
3
3
3
3
2
2
</DataArray>
<DataArray NumberOfComponents='1' type='Float32' Name='Velocity' format='ascii'>
0.000000
0.000000
0.000000
0.000000
0.000000
0.000000
0.000000
0.000000
0.000000
0.000000
0.000000
0.000000
0.000000
0.000000
0.000000
0.000000
0.000000
0.000000
0.000000
0.000000
0.000000
0.000000
0.000000
0.000000
0.000000
0.000000
0.000000
0.000000
0.000000
0.000000
0.000000
0.000000
0.000000
0.000000
0.000000
0.000000
0.000000
0.000000
0.000000
0.000000
0.000000
0.000000
0.000000
0.000000
0.000000
0.000000
0.000000
0.000000
0.000000
0.000000
0.000000
0.000000
0.000000
0.000000
0.000000
0.000000
0.000000
0.000000
0.000000
0.000000
0.000000
0.000000
0.000000
0.000000
0.000000
0.000000
0.000000
0.000000
0.000000
0.000000
0.000000
0.000000
0.000000
0.000000
0.000000
0.000000
0.000000
0.000000
0.000000
0.000000
0.000000
0.000000
0.000000
0.000000
0.000000
0.000000
0.000000
0.000000
0.000000
0.000000
0.000000
0.000000
0.000000
0.000000
0.000000
0.000000
0.000000
0.000000
0.000000
0.000000
0.000000
0.000000
0.000000
0.000000
0.000000
0.000000
0.000000
0.000000
0.000000
0.000000
0.000000
0.000000
0.000000
0.000000
0.000000
0.000000
0.512311
0.294085
0.650264
0.397191
0.588136
0.651561
0.545702
0.544485
0.551093
0.421172
0.182896
0.532014
0.321038
0.415746
0.215358
0.153855
0.437991
0.134610
0.209613
0.498846
0.000000
0.000000
0.000000
0.000000
0.230643
0.616522
0.504585
0.238814
0.229952
0.300154
0.132694
0.416970
0.571968
0.615553
0.516084
0.363848
0.249525
0.930835
0.646602
0.023768
0.570891
0.483565
0.546680
0.503662
0.000000
0.000000
0.000000
0.000000
0.494215
0.169112
0.269953
0.384918
0.656707
0.460751
0.232225
0.455803
0.717530
0.357984
0.354570
0.513293
0.459926
0.304194
0.486195
0.340277
0.077509
0.279169
0.405951
0.621140
0.000000
0.000000
0.000000
0.000000
0.354813
0.382747
0.149618
0.055070
0.649101
0.025052
0.353942
0.313614
0.203929
0.207138
0.447727
0.418694
0.606413
0.066848
0.651797
0.400073
0.056835
0.751383
0.429512
0.441613
0.000000
0.000000
0.000000
0.000000
0.191237
0.298310
0.153392
0.080982
0.111784
0.379094
0.618073
0.267159
0.292043
0.220470
0.323223
0.101574
0.423074
0.586745
0.413098
0.446644
0.176435
0.541385
0.344498
0.475096
0.000000
0.000000
0.000000
0.000000
0.329481
0.067010
0.172559
0.263281
0.181244
0.211154
0.093880
0.366891
0.341041
0.476893
0.053827
0.101172
0.239441
0.346860
0.201018
0.105370
0.086513
0.366218
0.081115
0.735897
0.000000
0.000000
0.000000
0.000000
0.276945
0.456057
0.220340
0.028804
0.064523
0.543134
0.088591
0.649617
0.353405
0.205699
0.374202
0.144621
0.508069
0.382241
0.049868
0.686011
0.383313
0.350905
0.530440
0.265008
0.000000
0.000000
0.000000
0.000000
0.317719
0.235732
0.417350
0.150904
0.762363
0.383037
0.062899
0.131725
0.179104
0.273877
0.169261
0.303318
0.294076
0.331812
0.116287
0.679134
0.312052
0.410040
0.173923
0.206900
0.000000
0.000000
0.000000
0.000000
0.682822
0.163057
0.536981
0.905386
0.264262
0.398991
0.399090
0.360298
0.087457
0.304582
0.181422
0.121961
0.469040
0.310111
0.409546
0.442449
0.101957
0.087903
0.463541
0.436081
0.000000
0.000000
0.000000
0.000000
0.181394
0.932606
0.751615
0.783234
0.351149
0.444417
0.256158
1.544999
0.753016
0.561467
0.291366
0.476135
0.094695
0.256733
0.363768
0.761212
0.521692
0.340104
0.129205
0.250586
0.000000
0.000000
0.000000
0.000000
0.000000
0.000000
0.000000
0.000000
0.000000
0.000000
0.000000
0.000000
0.000000
0.000000
0.000000
0.000000
0.000000
0.000000
0.000000
0.000000
0.000000
0.000000
0.000000
0.000000
0.000000
0.000000
0.000000
0.000000
0.000000
0.000000
0.000000
0.000000
0.000000
0.000000
0.000000
0.000000
0.000000
0.000000
0.000000
0.000000
0.000000
0.000000
0.000000
0.000000
0.000000
0.000000
0.000000
0.000000
0.000000
0.000000
0.000000
0.000000
0.000000
0.000000
0.000000
0.000000
0.000000
0.000000
0.000000
0.000000
0.000000
0.000000
0.000000
0.000000
0.000000
0.000000
0.000000
0.000000
0.000000
0.000000
0.000000
0.000000
0.000000
0.000000
0.000000
0.000000
0.000000
0.000000
0.000000
0.000000
0.000000
0.000000
0.000000
0.000000
0.000000
0.000000
0.000000
0.000000
0.000000
0.000000
0.000000
0.000000
0.000000
0.000000
0.000000
0.000000
0.000000
0.000000
0.000000
0.000000
0.000000
0.000000
0.000000
0.000000
0.000000
0.000000
0.000000
0.000000
0.000000
0.000000
0.000000
0.000000
0.000000
0.000000
0.000000
0.000000
0.000000
0.000000
0.000000
0.000000
0.000000
0.000000
0.000000
0.000000
0.000000
0.000000
0.000000
0.000000
0.000000
0.000000
0.000000
0.000000
0.000000
0.000000
0.000000
0.000000
0.000000
0.000000
0.000000
0.000000
0.000000
0.000000
0.000000
0.000000
0.000000
0.000000
0.000000
0.000000
0.000000
0.000000
0.000000
0.000000
0.000000
0.000000
0.000000
0.000000
0.000000
0.000000
0.000000
0.000000
0.000000
0.000000
0.000000
0.000000
0.000000
0.000000
0.000000
0.000000
0.000000
0.000000
0.000000
0.000000
0.000000
0.000000
0.000000
0.000000
0.000000
0.000000
0.000000
0.000000
0.000000
0.000000
0.000000
0.000000
0.000000
0.000000
0.000000
0.000000
0.000000
0.000000
0.000000
0.000000
0.000000
0.000000
0.000000
0.000000
0.000000
0.000000
0.000000
0.000000
0.000000
0.000000
0.000000
0.000000
0.000000
0.000000
0.000000
0.000000
0.000000
0.000000
0.000000
0.000000
0.000000
0.000000
0.000000
0.000000
0.000000
0.000000
0.000000
0.000000
0.000000
0.000000
0.000000
0.000000
0.000000
0.000000
0.000000
0.000000
0.000000
0.000000
0.000000
0.000000
</DataArray>
<DataArray NumberOfComponents='1' type='Float32' Name='pressure' format='ascii'>
0.000000
0.000000
0.000000
0.000000
0.000000
0.000000
0.000000
0.000000
0.000000
0.000000
0.000000
0.000000
0.000000
0.000000
0.000000
0.000000
0.000000
0.000000
0.000000
0.000000
0.000000
0.000000
0.000000
0.000000
0.000000
0.000000
0.000000
0.000000
0.000000
0.000000
0.000000
0.000000
0.000000
0.000000
0.000000
0.000000
0.000000
0.000000
0.000000
0.000000
0.000000
0.000000
0.000000
0.000000
0.000000
0.000000
0.000000
0.000000
0.000000
0.000000
0.000000
0.000000
0.000000
0.000000
0.000000
0.000000
0.000000
0.000000
1488.322021
1660.299438
2851.301025
2728.098633
2408.498779
1725.081177
0.000000
0.000000
0.000000
0.000000
0.000000
0.000000
0.000000
0.000000
0.000000
0.000000
0.000000
0.000000
0.000000
0.000000
0.000000
0.000000
0.000000
0.000000
0.000000
0.000000
0.000000
0.000000
1470.462402
529.669312
2111.545898
795.602234
951.225647
1479.753296
0.000000
0.000000
0.000000
0.000000
0.000000
0.000000
0.000000
0.000000
0.000000
0.000000
0.000000
0.000000
0.000000
0.000000
0.000000
0.000000
0.000000
0.000000
0.000000
0.000000
0.000000
0.000000
2009.983765
59.665932
377.715271
0.000000
1457.939941
243.188400
1782.890015
929.415955
849.529175
1109.029419
393.904053
0.000000
1524.568237
681.105042
2507.733643
1903.647461
396.621887
1616.426392
0.000000
1923.493774
823.236206
1576.846436
0.000000
0.000000
2795.639648
2525.211914
0.000000
0.000000
0.000000
1318.937988
1484.201050
1999.276489
1979.064087
545.132568
685.207581
0.000000
2432.644043
469.916443
0.000000
0.000000
1480.964600
1480.905273
1171.969116
1021.808899
0.000000
1599.066040
0.000000
0.000000
2183.512207
1206.955322
1448.849854
959.866821
0.000000
1638.472290
0.000000
0.000000
192.610764
0.000000
1.454111
285.265137
984.225220
2012.331909
0.000000
0.000000
1249.380615
1983.345703
1358.557983
1637.344482
262.937225
1806.603638
0.000000
0.000000
3181.125977
3551.303223
496.455078
0.000000
0.000000
0.000000
530.431641
149.380554
475.275848
754.614563
1098.645386
307.208252
888.489868
0.000000
614.876465
0.000000
0.000000
1242.729492
71.317818
1539.436157
678.727234
0.000000
0.000000
0.000000
3092.594482
3100.799805
0.000000
0.000000
250.543930
670.493652
231.942825
270.759796
0.000000
244.915771
0.000000
0.000000
0.000000
38.550072
1569.791504
0.000000
1881.408203
0.000000
0.000000
1564.647217
0.000000
0.000000
0.000000
0.000000
2166.136230
577.445435
0.000000
0.000000
0.000000
1457.281738
116.543861
1358.603516
0.000000
0.000000
0.000000
0.000000
0.000000
0.000000
0.000000
0.000000
0.000000
585.835205
0.000000
0.000000
0.000000
0.000000
0.000000
0.000000
2961.337402
2261.056396
0.000000
0.000000
0.000000
0.000000
543.817749
0.000000
0.000000
464.158264
168.126801
0.000000
1025.740479
0.000000
0.000000
0.000000
1243.161255
0.000000
0.000000
0.000000
0.000000
397.757996
0.000000
0.000000
2677.489014
2913.979004
0.000000
1818.650757
1319.836060
400.716949
274.157196
0.000000
577.360046
0.000000
0.000000
1031.922852
1733.186279
0.000000
0.000000
0.000000
0.000000
0.000000
655.518616
0.000000
677.091614
0.000000
0.000000
0.000000
1664.643311
355.998962
499.851776
471.381287
0.000000
0.000000
0.000000
0.000000
1152.045532
0.000000
0.000000
0.000000
0.000000
0.000000
1288.825073
845.379028
1675.571899
0.000000
0.000000
2940.187988
0.000000
1492.056763
0.000000
0.000000
2158.222412
2225.277588
0.000000
0.000000
0.000000
727.449341
1388.703735
0.000000
0.000000
0.000000
561.455505
573.076782
0.000000
0.000000
0.000000
100.531204
474.032166
1330.805542
0.000000
1276.502197
1198.013550
78.454468
0.000000
0.000000
2090.193115
2118.073242
0.000000
0.000000
1472.483643
1697.898682
0.000000
0.000000
2352.266602
1826.219727
0.000000
0.000000
2033.792603
1151.502319
0.000000
0.000000
2372.271729
2767.468750
0.000000
0.000000
1336.080566
1504.216675
0.000000
0.000000
103.736938
460.012146
0.000000
0.000000
148.909805
446.312927
0.000000
0.000000
1580.983521
1747.077026
0.000000
0.000000
932.833496
0.000000
0.000000
0.000000
1657.200439
39.727421
0.000000
0.000000
2353.263672
2209.886230
0.000000
0.000000
1649.444092
255.616516
0.000000
0.000000
477.352020
0.000000
0.000000
0.000000
1861.424683
704.200684
0.000000
0.000000
1961.653687
1354.306396
0.000000
0.000000
1037.441406
216.770462
0.000000
0.000000
787.955261
1033.159546
0.000000
0.000000
549.209351
2114.268555
0.000000
0.000000
2139.354004
2461.882812
0.000000
0.000000
2503.948730
2295.014404
0.000000
0.000000
2637.228271
3077.307129
0.000000
0.000000
1095.486084
207.659714
0.000000
0.000000
379.748108
124.732750
0.000000
0.000000
1846.894043
1738.772095
0.000000
0.000000
1752.299561
946.471130
0.000000
0.000000
2108.459473
939.926697
0.000000
0.000000
2745.725098
2498.110107
0.000000
0.000000
3578.206055
2011.263916
0.000000
0.000000
3243.471436
1718.560669
0.000000
0.000000
1714.134399
243.884735
810.721863
1023.617676
0.000000
0.000000
0.000000
0.000000
0.000000
0.000000
0.000000
0.000000
0.000000
0.000000
0.000000
0.000000
0.000000
0.000000
0.000000
0.000000
0.000000
0.000000
0.000000
0.000000
0.000000
0.000000
0.000000
0.000000
1572.043823
1525.294800
2648.826172
3491.557373
0.000000
0.000000
0.000000
0.000000
0.000000
0.000000
0.000000
0.000000
0.000000
0.000000
0.000000
0.000000
0.000000
0.000000
0.000000
0.000000
0.000000
0.000000
0.000000
0.000000
0.000000
0.000000
0.000000
0.000000
0.000000
0.000000
0.000000
0.000000
0.000000
0.000000
0.000000
0.000000
0.000000
0.000000
0.000000
0.000000
0.000000
0.000000
0.000000
0.000000
0.000000
0.000000
0.000000
0.000000
0.000000
0.000000
0.000000
0.000000
0.000000
0.000000
0.000000
0.000000
0.000000
0.000000
0.000000
0.000000
0.000000
0.000000
0.000000
0.000000
0.000000
0.000000
0.000000
0.000000
0.000000
0.000000
0.000000
0.000000
0.000000
0.000000
0.000000
0.000000
0.000000
0.000000
0.000000
0.000000
0.000000
0.000000
</DataArray>
</PointData>
<Cells>
<DataArray type='Int32' Name='connectivity' format='ascii'>
0
1
2
3
4
5
6
7
8
9
10
11
12
13
14
15
16
17
18
19
20
21
22
23
24
25
26
27
28
29
30
31
32
33
34
35
36
37
38
39
40
41
42
43
44
45
46
47
48
49
50
51
52
53
54
55
56
57
58
59
60
61
62
63
64
65
66
67
68
69
70
71
72
73
74
75
76
77
78
79
80
81
82
83
84
85
86
87
88
89
90
91
92
93
94
95
96
97
98
99
100
101
102
103
104
105
106
107
108
109
110
111
112
113
114
115
116
117
118
119
120
121
122
123
124
125
126
127
128
129
130
131
132
133
134
135
136
137
138
139
140
141
142
143
144
145
146
147
148
149
150
151
152
153
154
155
156
157
158
159
160
161
162
163
164
165
166
167
168
169
170
171
172
173
174
175
176
177
178
179
180
181
182
183
184
185
186
187
188
189
190
191
192
193
194
195
196
197
198
199
200
201
202
203
204
205
206
207
208
209
210
211
212
213
214
215
216
217
218
219
220
221
222
223
224
225
226
227
228
229
230
231
232
233
234
235
236
237
238
239
240
241
242
243
244
245
246
247
248
249
250
251
252
253
254
255
256
257
258
259
260
261
262
263
264
265
266
267
268
269
270
271
272
273
274
275
276
277
278
279
280
281
282
283
284
285
286
287
288
289
290
291
292
293
294
295
296
297
298
299
300
301
302
303
304
305
306
307