<?xml version='1.0' encoding='UTF-8'?>
<VTKFile xmlns='VTK' byte_order='LittleEndian' version='0.1' type='UnstructuredGrid'>
<UnstructuredGrid>
<Piece NumberOfCells='584' NumberOfPoints='584'>
<Points>
<DataArray NumberOfComponents='3' type='Float32' Name='Position' format='ascii'>
-0.075000 -0.075000 0.000000
-0.075000 -0.050000 0.000000
-0.075000 -0.025000 0.000000
-0.075000 0.000000 0.000000
-0.075000 0.025000 0.000000
-0.075000 0.050000 0.000000
-0.075000 0.075000 0.000000
-0.075000 0.100000 0.000000
-0.075000 0.125000 0.000000
-0.075000 0.150000 0.000000
-0.075000 0.175000 0.000000
-0.075000 0.200000 0.000000
-0.075000 0.225000 0.000000
-0.075000 0.250000 0.000000
-0.075000 0.275000 0.000000
-0.075000 0.300000 0.000000
-0.075000 0.325000 0.000000
-0.075000 0.350000 0.000000
-0.075000 0.375000 0.000000
-0.075000 0.400000 0.000000
-0.075000 0.425000 0.000000
-0.075000 0.450000 0.000000
-0.075000 0.475000 0.000000
-0.075000 0.500000 0.000000
-0.075000 0.525000 0.000000
-0.075000 0.550000 0.000000
-0.075000 0.575000 0.000000
-0.075000 0.600000 0.000000
-0.050000 -0.075000 0.000000
-0.050000 -0.050000 0.000000
-0.050000 -0.025000 0.000000
-0.050000 0.000000 0.000000
-0.050000 0.025000 0.000000
-0.050000 0.050000 0.000000
-0.050000 0.075000 0.000000
-0.050000 0.100000 0.000000
-0.050000 0.125000 0.000000
-0.050000 0.150000 0.000000
-0.050000 0.175000 0.000000
-0.050000 0.200000 0.000000
-0.050000 0.225000 0.000000
-0.050000 0.250000 0.000000
-0.050000 0.275000 0.000000
-0.050000 0.300000 0.000000
-0.050000 0.325000 0.000000
-0.050000 0.350000 0.000000
-0.050000 0.375000 0.000000
-0.050000 0.400000 0.000000
-0.050000 0.425000 0.000000
-0.050000 0.450000 0.000000
-0.050000 0.475000 0.000000
-0.050000 0.500000 0.000000
-0.050000 0.525000 0.000000
-0.050000 0.550000 0.000000
-0.050000 0.575000 0.000000
-0.050000 0.600000 0.000000
-0.025000 -0.075000 0.000000
-0.025000 -0.050000 0.000000
-0.025000 -0.025000 0.000000
-0.025000 0.000000 0.000000
-0.025000 0.025000 0.000000
-0.025000 0.050000 0.000000
-0.025000 0.075000 0.000000
-0.025000 0.100000 0.000000
-0.025000 0.125000 0.000000
-0.025000 0.150000 0.000000
-0.025000 0.175000 0.000000
-0.025000 0.200000 0.000000
-0.025000 0.225000 0.000000
-0.025000 0.250000 0.000000
-0.025000 0.275000 0.000000
-0.025000 0.300000 0.000000
-0.025000 0.325000 0.000000
-0.025000 0.350000 0.000000
-0.025000 0.375000 0.000000
-0.025000 0.400000 0.000000
-0.025000 0.425000 0.000000
-0.025000 0.450000 0.000000
-0.025000 0.475000 0.000000
-0.025000 0.500000 0.000000
-0.025000 0.525000 0.000000
-0.025000 0.550000 0.000000
-0.025000 0.575000 0.000000
-0.025000 0.600000 0.000000
0.000000 -0.075000 0.000000
0.000000 -0.050000 0.000000
0.000000 -0.025000 0.000000
0.000000 0.000000 0.000000
0.000000 0.025000 0.000000
0.000000 0.050000 0.000000
0.000000 0.075000 0.000000
0.000000 0.100000 0.000000
0.000000 0.125000 0.000000
0.000000 0.150000 0.000000
0.000000 0.175000 0.000000
0.000000 0.200000 0.000000
0.000000 0.225000 0.000000
0.000000 0.250000 0.000000
0.000000 0.275000 0.000000
0.000000 0.300000 0.000000
0.000000 0.325000 0.000000
0.000000 0.350000 0.000000
0.000000 0.375000 0.000000
0.000000 0.400000 0.000000
0.000000 0.425000 0.000000
0.000000 0.450000 0.000000
0.000000 0.475000 0.000000
0.000000 0.500000 0.000000
0.000000 0.525000 0.000000
0.000000 0.550000 0.000000
0.000000 0.575000 0.000000
0.000000 0.600000 0.000000
0.025000 -0.075000 0.000000
0.025000 -0.050000 0.000000
0.025000 -0.025000 0.000000
0.025000 0.000000 0.000000
0.036637 0.021999 0.000000
0.020633 0.040350 0.000000
0.046035 0.057214 0.000000
0.025934 0.068309 0.000000
0.040499 0.083669 0.000000
0.022469 0.103539 0.000000
0.038308 0.117905 0.000000
0.024922 0.137078 0.000000
0.030643 0.157016 0.000000
0.025712 0.176938 0.000000
0.028559 0.198080 0.000000
0.026283 0.218231 0.000000
0.026168 0.240685 0.000000
0.026198 0.261657 0.000000
0.025401 0.285074 0.000000
0.026130 0.307476 0.000000
0.024663 0.331577 0.000000
0.026088 0.354591 0.000000
0.025962 0.379288 0.000000
0.025012 0.399274 0.000000
0.050000 -0.075000 0.000000
0.050000 -0.050000 0.000000
0.050000 -0.025000 0.000000
0.050000 0.000000 0.000000
0.081768 0.023178 0.000000
0.055832 0.031100 0.000000
0.071249 0.054507 0.000000
0.078990 0.071421 0.000000
0.065501 0.089425 0.000000
0.073644 0.106605 0.000000
0.062182 0.123141 0.000000
0.066662 0.143127 0.000000
0.061570 0.160076 0.000000
0.063499 0.179942 0.000000
0.060761 0.198417 0.000000
0.061050 0.218157 0.000000
0.059224 0.237731 0.000000
0.059033 0.257688 0.000000
0.057058 0.278219 0.000000
0.056260 0.298770 0.000000
0.054608 0.320378 0.000000
0.054171 0.341982 0.000000
0.052447 0.365335 0.000000
0.052032 0.390183 0.000000
0.075000 -0.075000 0.000000
0.075000 -0.050000 0.000000
0.075000 -0.025000 0.000000
0.075000 0.000000 0.000000
0.120014 0.022359 0.000000
0.093928 0.037364 0.000000
0.117868 0.048779 0.000000
0.113731 0.066999 0.000000
0.111072 0.084830 0.000000
0.106699 0.102766 0.000000
0.107018 0.120977 0.000000
0.102662 0.138854 0.000000
0.101295 0.157203 0.000000
0.098436 0.176363 0.000000
0.096950 0.195396 0.000000
0.094271 0.215444 0.000000
0.092104 0.236243 0.000000
0.089480 0.257074 0.000000
0.087248 0.279549 0.000000
0.084772 0.301824 0.000000
0.082696 0.325769 0.000000
0.080003 0.348843 0.000000
0.078571 0.374127 0.000000
0.075218 0.393969 0.000000
0.100000 -0.075000 0.000000
0.100000 -0.050000 0.000000
0.100000 -0.025000 0.000000
0.100000 0.000000 0.000000
0.168977 0.019552 0.000000
0.139183 0.032986 0.000000
0.155978 0.045854 0.000000
0.156956 0.067589 0.000000
0.147160 0.082553 0.000000
0.147598 0.099820 0.000000
0.142973 0.118648 0.000000
0.141808 0.135638 0.000000
0.135396 0.154951 0.000000
0.134997 0.172867 0.000000
0.129771 0.192947 0.000000
0.128100 0.211983 0.000000
0.123620 0.232363 0.000000
0.121187 0.252595 0.000000
0.118045 0.273636 0.000000
0.114166 0.294525 0.000000
0.112344 0.316271 0.000000
0.108699 0.338183 0.000000
0.106079 0.361748 0.000000
0.102793 0.386032 0.000000
0.125000 -0.075000 0.000000
0.125000 -0.050000 0.000000
0.125000 -0.025000 0.000000
0.125000 0.000000 0.000000
0.208917 0.021616 0.000000
0.180204 0.040990 0.000000
0.212358 0.047665 0.000000
0.189447 0.058573 0.000000
0.195870 0.078817 0.000000
0.187591 0.094496 0.000000
0.184042 0.112209 0.000000
0.180549 0.130061 0.000000
0.175846 0.148924 0.000000
0.171449 0.167415 0.000000
0.167223 0.187228 0.000000
0.163025 0.206870 0.000000
0.158594 0.227736 0.000000
0.154118 0.248750 0.000000
0.149765 0.270340 0.000000
0.144643 0.292887 0.000000
0.140818 0.316416 0.000000
0.134928 0.340072 0.000000
0.132665 0.364299 0.000000
0.125943 0.386116 0.000000
0.150000 -0.075000 0.000000
0.150000 -0.050000 0.000000
0.150000 -0.025000 0.000000
0.150000 0.000000 0.000000
0.259799 0.020293 0.000000
0.229936 0.032855 0.000000
0.256890 0.040714 0.000000
0.235637 0.058154 0.000000
0.227877 0.075537 0.000000
0.237050 0.094191 0.000000
0.220844 0.105334 0.000000
0.220179 0.125666 0.000000
0.211944 0.141514 0.000000
0.207076 0.161191 0.000000
0.201610 0.179664 0.000000
0.196181 0.199297 0.000000
0.190715 0.219403 0.000000
0.184932 0.240151 0.000000
0.180077 0.261316 0.000000
0.174244 0.283792 0.000000
0.168966 0.305590 0.000000
0.164453 0.328510 0.000000
0.159506 0.353027 0.000000
0.153837 0.378058 0.000000
0.175000 -0.075000 0.000000
0.175000 -0.050000 0.000000
0.175000 -0.025000 0.000000
0.175000 0.000000 0.000000
0.308211 0.021566 0.000000
0.290458 0.032647 0.000000
0.307209 0.051640 0.000000
0.273664 0.053823 0.000000
0.288036 0.070318 0.000000
0.271284 0.082379 0.000000
0.263264 0.099816 0.000000
0.262168 0.118878 0.000000
0.251461 0.136201 0.000000
0.247888 0.155088 0.000000
0.239910 0.174359 0.000000
0.233613 0.193557 0.000000
0.226571 0.214472 0.000000
0.219455 0.234506 0.000000
0.212838 0.257502 0.000000
0.205127 0.278806 0.000000
0.199165 0.302048 0.000000
0.190900 0.327134 0.000000
0.186652 0.350939 0.000000
0.177324 0.374138 0.000000
0.200000 -0.075000 0.000000
0.200000 -0.050000 0.000000
0.200000 -0.025000 0.000000
0.200000 0.000000 0.000000
0.413812 0.029272 0.000000
0.343507 0.024518 0.000000
0.363020 0.034277 0.000000
0.330370 0.040214 0.000000
0.341255 0.064939 0.000000
0.317839 0.073662 0.000000
0.309935 0.090786 0.000000
0.303122 0.108628 0.000000
0.295159 0.124695 0.000000
0.286272 0.141979 0.000000
0.277522 0.160907 0.000000
0.268190 0.179891 0.000000
0.260314 0.200945 0.000000
0.250414 0.221967 0.000000
0.243817 0.244228 0.000000
0.234242 0.266563 0.000000
0.228768 0.289976 0.000000
0.219230 0.314002 0.000000
0.213622 0.337864 0.000000
0.204465 0.365540 0.000000
0.225000 -0.075000 0.000000
0.225000 -0.050000 0.000000
0.225000 -0.025000 0.000000
0.225000 0.000000 0.000000
0.435701 0.023612 0.000000
0.447144 0.041364 0.000000
0.387091 0.020451 0.000000
0.409831 0.050772 0.000000
0.379977 0.046628 0.000000
0.384053 0.068675 0.000000
0.357230 0.071971 0.000000
0.355792 0.097835 0.000000
0.340276 0.111692 0.000000
0.331008 0.131612 0.000000
0.317385 0.152474 0.000000
0.306617 0.172608 0.000000
0.295986 0.194635 0.000000
0.285545 0.215827 0.000000
0.276851 0.238975 0.000000
0.265933 0.261250 0.000000
0.259305 0.285274 0.000000
0.246982 0.308814 0.000000
0.242736 0.335543 0.000000
0.228933 0.358150 0.000000
0.250000 -0.075000 0.000000
0.250000 -0.050000 0.000000
0.250000 -0.025000 0.000000
0.250000 0.000000 0.000000
0.538903 0.018926 0.000000
0.493883 0.026336 0.000000
0.472905 0.021921 0.000000
0.485190 0.048231 0.000000
0.472377 0.062996 0.000000
0.441930 0.061887 0.000000
0.427042 0.066297 0.000000
0.403421 0.081123 0.000000
0.388388 0.092890 0.000000
0.367619 0.114057 0.000000
0.356983 0.133715 0.000000
0.340385 0.155447 0.000000
0.329473 0.177727 0.000000
0.316904 0.200475 0.000000
0.306304 0.223724 0.000000
0.296150 0.247329 0.000000
0.286109 0.271278 0.000000
0.276938 0.295541 0.000000
0.267183 0.319982 0.000000
0.255719 0.345707 0.000000
0.275000 -0.075000 0.000000
0.275000 -0.050000 0.000000
0.275000 -0.025000 0.000000
0.275000 0.000000 0.000000
0.300000 -0.075000 0.000000
0.300000 -0.050000 0.000000
0.300000 -0.025000 0.000000
0.300000 0.000000 0.000000
0.325000 -0.075000 0.000000
0.325000 -0.050000 0.000000
0.325000 -0.025000 0.000000
0.325000 0.000000 0.000000
0.350000 -0.075000 0.000000
0.350000 -0.050000 0.000000
0.350000 -0.025000 0.000000
0.350000 0.000000 0.000000
0.375000 -0.075000 0.000000
0.375000 -0.050000 0.000000
0.375000 -0.025000 0.000000
0.375000 0.000000 0.000000
0.400000 -0.075000 0.000000
0.400000 -0.050000 0.000000
0.400000 -0.025000 0.000000
0.400000 0.000000 0.000000
0.425000 -0.075000 0.000000
0.425000 -0.050000 0.000000
0.425000 -0.025000 0.000000
0.425000 0.000000 0.000000
0.450000 -0.075000 0.000000
0.450000 -0.050000 0.000000
0.450000 -0.025000 0.000000
0.450000 0.000000 0.000000
0.475000 -0.075000 0.000000
0.475000 -0.050000 0.000000
0.475000 -0.025000 0.000000
0.475000 0.000000 0.000000
0.500000 -0.075000 0.000000
0.500000 -0.050000 0.000000
0.500000 -0.025000 0.000000
0.500000 0.000000 0.000000
0.525000 -0.075000 0.000000
0.525000 -0.050000 0.000000
0.525000 -0.025000 0.000000
0.525000 0.000000 0.000000
0.550000 -0.075000 0.000000
0.550000 -0.050000 0.000000
0.550000 -0.025000 0.000000
0.550000 0.000000 0.000000
0.575000 -0.075000 0.000000
0.575000 -0.050000 0.000000
0.575000 -0.025000 0.000000
0.575000 0.000000 0.000000
0.600000 -0.075000 0.000000
0.600000 -0.050000 0.000000
0.600000 -0.025000 0.000000
0.600000 0.000000 0.000000
0.625000 -0.075000 0.000000
0.625000 -0.050000 0.000000
0.625000 -0.025000 0.000000
0.625000 0.000000 0.000000
0.650000 -0.075000 0.000000
0.650000 -0.050000 0.000000
0.650000 -0.025000 0.000000
0.650000 0.000000 0.000000
0.675000 -0.075000 0.000000
0.675000 -0.050000 0.000000
0.675000 -0.025000 0.000000
0.675000 0.000000 0.000000
0.700000 -0.075000 0.000000
0.700000 -0.050000 0.000000
0.700000 -0.025000 0.000000
0.700000 0.000000 0.000000
0.725000 -0.075000 0.000000
0.725000 -0.050000 0.000000
0.725000 -0.025000 0.000000
0.725000 0.000000 0.000000
0.750000 -0.075000 0.000000
0.750000 -0.050000 0.000000
0.750000 -0.025000 0.000000
0.750000 0.000000 0.000000
0.775000 -0.075000 0.000000
0.775000 -0.050000 0.000000
0.775000 -0.025000 0.000000
0.775000 0.000000 0.000000
0.800000 -0.075000 0.000000
0.800000 -0.050000 0.000000
0.800000 -0.025000 0.000000
0.800000 0.000000 0.000000
0.825000 -0.075000 0.000000
0.825000 -0.050000 0.000000
0.825000 -0.025000 0.000000
0.825000 0.000000 0.000000
0.850000 -0.075000 0.000000
0.850000 -0.050000 0.000000
0.850000 -0.025000 0.000000
0.850000 0.000000 0.000000
0.875000 -0.075000 0.000000
0.875000 -0.050000 0.000000
0.875000 -0.025000 0.000000
0.875000 0.000000 0.000000
0.900000 -0.075000 0.000000
0.900000 -0.050000 0.000000
0.900000 -0.025000 0.000000
0.900000 0.000000 0.000000
0.925000 -0.075000 0.000000
0.925000 -0.050000 0.000000
0.925000 -0.025000 0.000000
0.925000 0.000000 0.000000
0.950000 -0.075000 0.000000
0.950000 -0.050000 0.000000
0.950000 -0.025000 0.000000
0.950000 0.000000 0.000000
0.975000 -0.075000 0.000000
0.975000 -0.050000 0.000000
0.975000 -0.025000 0.000000
0.975000 0.000000 0.000000
1.000000 -0.075000 0.000000
1.000000 -0.050000 0.000000
1.000000 -0.025000 0.000000
1.000000 0.000000 0.000000
1.025000 -0.075000 0.000000
1.025000 -0.050000 0.000000
1.025000 -0.025000 0.000000
1.025000 0.000000 0.000000
1.025000 0.025000 0.000000
1.025000 0.050000 0.000000
1.025000 0.075000 0.000000
1.025000 0.100000 0.000000
1.025000 0.125000 0.000000
1.025000 0.150000 0.000000
1.025000 0.175000 0.000000
1.025000 0.200000 0.000000
1.025000 0.225000 0.000000
1.025000 0.250000 0.000000
1.025000 0.275000 0.000000
1.025000 0.300000 0.000000
1.025000 0.325000 0.000000
1.025000 0.350000 0.000000
1.025000 0.375000 0.000000
1.025000 0.400000 0.000000
1.025000 0.425000 0.000000
1.025000 0.450000 0.000000
1.025000 0.475000 0.000000
1.025000 0.500000 0.000000
1.025000 0.525000 0.000000
1.025000 0.550000 0.000000
1.025000 0.575000 0.000000
1.025000 0.600000 0.000000
1.050000 -0.075000 0.000000
1.050000 -0.050000 0.000000
1.050000 -0.025000 0.000000
1.050000 0.000000 0.000000
1.050000 0.025000 0.000000
1.050000 0.050000 0.000000
1.050000 0.075000 0.000000
1.050000 0.100000 0.000000
1.050000 0.125000 0.000000
1.050000 0.150000 0.000000
1.050000 0.175000 0.000000
1.050000 0.200000 0.000000
1.050000 0.225000 0.000000
1.050000 0.250000 0.000000
1.050000 0.275000 0.000000
1.050000 0.300000 0.000000
1.050000 0.325000 0.000000
1.050000 0.350000 0.000000
1.050000 0.375000 0.000000
1.050000 0.400000 0.000000
1.050000 0.425000 0.000000
1.050000 0.450000 0.000000
1.050000 0.475000 0.000000
1.050000 0.500000 0.000000
1.050000 0.525000 0.000000
1.050000 0.550000 0.000000
1.050000 0.575000 0.000000
1.050000 0.600000 0.000000
1.075000 -0.075000 0.000000
1.075000 -0.050000 0.000000
1.075000 -0.025000 0.000000
1.075000 0.000000 0.000000
1.075000 0.025000 0.000000
1.075000 0.050000 0.000000
1.075000 0.075000 0.000000
1.075000 0.100000 0.000000
1.075000 0.125000 0.000000
1.075000 0.150000 0.000000
1.075000 0.175000 0.000000
1.075000 0.200000 0.000000
1.075000 0.225000 0.000000
1.075000 0.250000 0.000000
1.075000 0.275000 0.000000
1.075000 0.300000 0.000000
1.075000 0.325000 0.000000
1.075000 0.350000 0.000000
1.075000 0.375000 0.000000
1.075000 0.400000 0.000000
1.075000 0.425000 0.000000
1.075000 0.450000 0.000000
1.075000 0.475000 0.000000
1.075000 0.500000 0.000000
1.075000 0.525000 0.000000
1.075000 0.550000 0.000000
1.075000 0.575000 0.000000
1.075000 0.600000 0.000000
1.100000 -0.075000 0.000000
1.100000 -0.050000 0.000000
1.100000 -0.025000 0.000000
1.100000 0.000000 0.000000
1.100000 0.025000 0.000000
1.100000 0.050000 0.000000
1.100000 0.075000 0.000000
1.100000 0.100000 0.000000
1.100000 0.125000 0.000000
1.100000 0.150000 0.000000
1.100000 0.175000 0.000000
1.100000 0.200000 0.000000
1.100000 0.225000 0.000000
1.100000 0.250000 0.000000
1.100000 0.275000 0.000000
1.100000 0.300000 0.000000
1.100000 0.325000 0.000000
1.100000 0.350000 0.000000
1.100000 0.375000 0.000000
1.100000 0.400000 0.000000
1.100000 0.425000 0.000000
1.100000 0.450000 0.000000
1.100000 0.475000 0.000000
1.100000 0.500000 0.000000
1.100000 0.525000 0.000000
1.100000 0.550000 0.000000
1.100000 0.575000 0.000000
1.100000 0.600000 0.000000
</DataArray>
</Points>
<PointData>
<DataArray NumberOfComponents='1' type='Int32' Name='ParticleType' format='ascii'>
3
3
3
3
3
3
3
3
3
3
3
3
3
3
3
3
3
3
3
3
3
3
3
3
3
3
2
2
3
3
3
3
3
3
3
3
3
3
3
3
3
3
3
3
3
3
3
3
3
3
3
3
3
3
2
2
3
3
2
2
2
2
2
2
2
2
2
2
2
2
2
2
2
2
2
2
2
2
2
2
2
2
2
2
3
3
2
2
2
2
2
2
2
2
2
2
2
2
2
2
2
2
2
2
2
2
2
2
2
2
2
2
3
3
2
2
0
0
0
0
0
0
0
0
0
0
0
0
0
0
0
0
0
0
0
0
3
3
2
2
0
0
0
0
0
0
0
0
0
0
0
0
0
0
0
0
0
0
0
0
3
3
2
2
0
0
0
0
0
0
0
0
0
0
0
0
0
0
0
0
0
0
0
0
3
3
2
2
0
0
0
0
0
0
0
0
0
0
0
0
0
0
0
0
0
0
0
0
3
3
2
2
0
0
0
0
0
0
0
0
0
0
0
0
0
0
0
0
0
0
0
0
3
3
2
2
0
0
0
0
0
0
0
0
0
0
0
0
0
0
0
0
0
0
0
0
3
3
2
2
0
0
0
0
0
0
0
0
0
0
0
0
0
0
0
0
0
0
0
0
3
3
2
2
0
0
0
0
0
0
0
0
0
0
0
0
0
0
0
0
0
0
0
0
3
3
2
2
0
0
0
0
0
0
0
0
0
0
0
0
0
0
0
0
0
0
0
0
3
3
2
2
0
0
0
0
0
0
0
0
0
0
0
0
0
0
0
0
0
0
0
0
3
3
2
2
3
3
2
2
3
3
2
2
3
3
2
2
3
3
2
2
3
3
2
2
3
3
2
2
3
3
2
2
3
3
2
2
3
3
2
2
3
3
2
2
3
3
2
2
3
3
2
2
3
3
2
2
3
3
2
2
3
3
2
2
3
3
2
2
3
3
2
2
3
3
2
2
3
3
2
2
3
3
2
2
3
3
2
2
3
3
2
2
3
3
2
2
3
3
2
2
3
3
2
2
3
3
2
2
3
3
2
2
3
3
2
2
3
3
2
2
3
3
2
2
2
2
2
2
2
2
2
2
2
2
2
2
2
2
2
2
2
2
2
2
2
2
2
2
3
3
2
2
2
2
2
2
2
2
2
2
2
2
2
2
2
2
2
2
2
2
2
2
2
2
2
2
3
3
3
3
3
3
3
3
3
3
3
3
3
3
3
3
3
3
3
3
3
3
3
3
3
3
2
2
3
3
3
3
3
3
3
3
3
3
3
3
3
3
3
3
3
3
3
3
3
3
3
3
3
3
2
2
</DataArray>
<DataArray NumberOfComponents='1' type='Float32' Name='Velocity' format='ascii'>
0.000000
0.000000
0.000000
0.000000
0.000000
0.000000
0.000000
0.000000
0.000000
0.000000
0.000000
0.000000
0.000000
0.000000
0.000000
0.000000
0.000000
0.000000
0.000000
0.000000
0.000000
0.000000
0.000000
0.000000
0.000000
0.000000
0.000000
0.000000
0.000000
0.000000
0.000000
0.000000
0.000000
0.000000
0.000000
0.000000
0.000000
0.000000
0.000000
0.000000
0.000000
0.000000
0.000000
0.000000
0.000000
0.000000
0.000000
0.000000
0.000000
0.000000
0.000000
0.000000
0.000000
0.000000
0.000000
0.000000
0.000000
0.000000
0.000000
0.000000
0.000000
0.000000
0.000000
0.000000
0.000000
0.000000
0.000000
0.000000
0.000000
0.000000
0.000000
0.000000
0.000000
0.000000
0.000000
0.000000
0.000000
0.000000
0.000000
0.000000
0.000000
0.000000
0.000000
0.000000
0.000000
0.000000
0.000000
0.000000
0.000000
0.000000
0.000000
0.000000
0.000000
0.000000
0.000000
0.000000
0.000000
0.000000
0.000000
0.000000
0.000000
0.000000
0.000000
0.000000
0.000000
0.000000
0.000000
0.000000
0.000000
0.000000
0.000000
0.000000
0.000000
0.000000
0.000000
0.000000
0.241525
0.159371
0.340287
0.325904
0.349039
0.436330
0.685652
0.594191
0.753167
0.663638
0.787882
0.682039
0.779771
0.819252
0.798302
0.829544
0.828426
0.858585
0.781631
0.862902
0.000000
0.000000
0.000000
0.000000
0.451139
0.307054
0.229403
0.629104
0.258965
0.630048
0.448573
0.528325
0.605452
0.558958
0.666875
0.657229
0.745730
0.720218
0.769679
0.775634
0.815581
0.831788
0.956522
0.952950
0.000000
0.000000
0.000000
0.000000
0.154416
0.483210
0.684815
0.554909
0.423369
0.380268
0.468642
0.471956
0.496386
0.580673
0.671390
0.641642
0.775007
0.826754
0.859321
0.903664
0.877987
0.908747
0.814791
0.912108
0.000000
0.000000
0.000000
0.000000
0.456532
0.252361
0.807348
0.756540
0.651356
0.634104
0.707251
0.713868
0.656104
0.765642
0.708337
0.814217
0.788436
0.794880
0.843310
0.839831
0.891398
0.893246
0.954761
1.004385
0.000000
0.000000
0.000000
0.000000
0.592192
0.591485
1.069763
0.632690
1.004880
0.722731
0.778470
0.794382
0.826860
0.860283
0.884340
0.902576
0.906635
0.993103
1.002116
1.010410
1.036134
1.007577
0.990403
0.997442
0.000000
0.000000
0.000000
0.000000
0.833804
1.003943
1.072761
0.925258
0.707066
1.367809
1.003357
1.067000
1.078074
0.966448
1.063851
1.043855
1.051156
1.081206
1.061538
1.053098
1.086360
1.098770
1.073137
1.118731
0.000000
0.000000
0.000000
0.000000
1.342834
1.365682
1.182258
0.932346
1.607787
1.032860
1.030328
1.149931
0.978383
1.121456
1.056612
1.106729
1.217257
1.164309
1.234937
1.227483
1.254930
1.207530
1.185826
1.168617
0.000000
0.000000
0.000000
0.000000
2.647119
1.696086
1.863417
1.696827
1.936919
1.331278
1.295048
1.275947
1.396835
1.291119
1.434038
1.534383
1.390439
1.430116
1.361089
1.435033
1.360762
1.355227
1.333522
1.293276
0.000000
0.000000
0.000000
0.000000
2.201405
2.511510
2.114918
2.085060
2.191539
2.150074
1.868034
1.801718
1.777935
1.775157
1.827136
1.632725
1.602612
1.662480
1.543811
1.559070
1.506239
1.470630
1.451422
1.380005
0.000000
0.000000
0.000000
0.000000
2.346576
2.287884
2.271739
2.509776
2.663553
2.482534
2.788395
2.398347
2.249859
2.081861
2.125586
1.996130
1.957993
1.836002
1.817782
1.756024
1.731717
1.677328
1.702034
1.582317
0.000000
0.000000
0.000000
0.000000
0.000000
0.000000
0.000000
0.000000
0.000000
0.000000
0.000000
0.000000
0.000000
0.000000
0.000000
0.000000
0.000000
0.000000
0.000000
0.000000
0.000000
0.000000
0.000000
0.000000
0.000000
0.000000
0.000000
0.000000
0.000000
0.000000
0.000000
0.000000
0.000000
0.000000
0.000000
0.000000
0.000000
0.000000
0.000000
0.000000
0.000000
0.000000
0.000000
0.000000
0.000000
0.000000
0.000000
0.000000
0.000000
0.000000
0.000000
0.000000
0.000000
0.000000
0.000000
0.000000
0.000000
0.000000
0.000000
0.000000
0.000000
0.000000
0.000000
0.000000
0.000000
0.000000
0.000000
0.000000
0.000000
0.000000
0.000000
0.000000
0.000000
0.000000
0.000000
0.000000
0.000000
0.000000
0.000000
0.000000
0.000000
0.000000
0.000000
0.000000
0.000000
0.000000
0.000000
0.000000
0.000000
0.000000
0.000000
0.000000
0.000000
0.000000
0.000000
0.000000
0.000000
0.000000
0.000000
0.000000
0.000000
0.000000
0.000000
0.000000
0.000000
0.000000
0.000000
0.000000
0.000000
0.000000
0.000000
0.000000
0.000000
0.000000
0.000000
0.000000
0.000000
0.000000
0.000000
0.000000
0.000000
0.000000
0.000000
0.000000
0.000000
0.000000
0.000000
0.000000
0.000000
0.000000
0.000000
0.000000
0.000000
0.000000
0.000000
0.000000
0.000000
0.000000
0.000000
0.000000
0.000000
0.000000
0.000000
0.000000
0.000000
0.000000
0.000000
0.000000
0.000000
0.000000
0.000000
0.000000
0.000000
0.000000
0.000000
0.000000
0.000000
0.000000
0.000000
0.000000
0.000000
0.000000
0.000000
0.000000
0.000000
0.000000
0.000000
0.000000
0.000000
0.000000
0.000000
0.000000
0.000000
0.000000
0.000000
0.000000
0.000000
0.000000
0.000000
0.000000
0.000000
0.000000
0.000000
0.000000
0.000000
0.000000
0.000000
0.000000
0.000000
0.000000
0.000000
0.000000
0.000000
0.000000
0.000000
0.000000
0.000000
0.000000
0.000000
0.000000
0.000000
0.000000
0.000000
0.000000
0.000000
0.000000
0.000000
0.000000
0.000000
0.000000
0.000000
0.000000
0.000000
0.000000
0.000000
0.000000
0.000000
0.000000
0.000000
0.000000
0.000000
0.000000
0.000000
0.000000
0.000000
0.000000
0.000000
0.000000
0.000000
0.000000
0.000000
0.000000
</DataArray>
<DataArray NumberOfComponents='1' type='Float32' Name='pressure' format='ascii'>
0.000000
0.000000
0.000000
0.000000
0.000000
0.000000
0.000000
0.000000
0.000000
0.000000
0.000000
0.000000
0.000000
0.000000
0.000000
0.000000
0.000000
0.000000
0.000000
0.000000
0.000000
0.000000
0.000000
0.000000
0.000000
0.000000
0.000000
0.000000
0.000000
0.000000
0.000000
0.000000
0.000000
0.000000
0.000000
0.000000
0.000000
0.000000
0.000000
0.000000
0.000000
0.000000
0.000000
0.000000
0.000000
0.000000
0.000000
0.000000
0.000000
0.000000
0.000000
0.000000
0.000000
0.000000
0.000000
0.000000
0.000000
0.000000
1609.039795
1763.889771
2664.175781
3307.178467
1345.794800
1908.694458
65.712555
0.000000
0.000000
0.000000
0.000000
0.000000
0.000000
0.000000
0.000000
0.000000
0.000000
0.000000
0.000000
0.000000
0.000000
0.000000
0.000000
0.000000
0.000000
0.000000
0.000000
0.000000
1695.062378
578.772583
645.451477
3200.707520
725.245300
1949.475586
368.217804
0.000000
1.267479
0.000000
296.240234
868.291992
543.842651
100.407501
125.428810
0.000000
0.000000
0.000000
0.000000
0.000000
0.000000
0.000000
0.000000
0.000000
0.000000
0.000000
0.000000
0.000000
2407.850830
1610.271362
4075.915039
3122.671631
892.171448
1784.737305
1025.978882
0.000000
1045.656982
669.127258
251.397598
813.069763
782.161072
154.575363
0.000000
0.000000
0.000000
0.000000
0.000000
0.000000
0.000000
0.000000
0.000000
0.000000
2301.355713
1577.973145
2938.468262
1389.969238
740.241455
107.472992
1472.492554
0.000000
857.706055
88.880898
678.334290
33.520931
523.335815
525.115479
945.982544
757.178772
961.674866
847.917175
730.728882
217.764267
59.254982
0.000000
0.000000
0.000000
2137.266846
1385.654663
1652.926392
1697.880371
778.192139
1779.532227
1678.640381
1725.016846
1337.668457
1744.056763
859.146790
1561.265625
1123.833984
625.347473
530.593811
205.291275
0.000000
0.000000
0.000000
0.000000
9.231188
0.000000
0.000000
0.000000
1354.545898
0.000000
1364.742798
2036.734619
2018.088135
473.533447
1564.543213
325.283020
934.392212
901.986206
654.940002
674.856262
465.330811
775.325745
515.429871
723.933411
708.330200
1023.882996
819.985291
581.033508
491.186829
0.000000
0.000000
0.000000
2595.544189
864.041687
0.000000
2019.072144
226.241745
2879.248535
870.752136
1066.911255
1067.930298
875.628479
739.747131
866.145935
848.618469
746.058411
568.084045
671.835205
211.034058
0.000000
0.000000
0.000000
96.052803
0.000000
0.000000
0.000000
2953.643066
788.258118
1618.394043
1351.682129
1096.298950
1051.865112
1351.440186
0.000000
553.650757
0.000000
660.045410
0.000000
224.296616
143.527557
0.000000
305.409058
207.479050
382.502289
652.970947
317.263153
306.700684
0.000000
0.000000
0.000000
4580.897461
3996.168945
1272.381714
681.018005
1891.126587
294.632538
2598.708984
310.752167
1830.679443
1228.068726
1048.068726
1319.932617
844.159668
999.106201
1367.633423
321.500854
862.482544
187.800476
104.485466
173.065857
70.512428
0.000000
0.000000
0.000000
3295.224609
1391.833984
2238.511230
1813.907104
681.530823
1168.945557
743.705383
1777.279663
922.663879
1028.978516
1052.319946
220.758804
487.274597
575.522766
0.000000
237.609451
0.000000
198.102982
197.837402
226.050674
93.087524
0.000000
0.000000
0.000000
2199.815186
0.000000
2315.997070
685.928833
1137.855591
2617.609375
973.167542
2274.629639
865.153809
1020.260437
706.848633
317.728912
891.646973
882.690796
787.903442
679.790833
643.095703
410.385834
552.179016
311.834076
164.788284
0.000000
0.000000
0.000000
3048.460938
1185.428955
0.000000
0.000000
0.000000
0.000000
0.000000
0.000000
0.000000
0.000000
0.000000
0.000000
0.000000
0.000000
0.000000
0.000000
0.000000
0.000000
0.000000
0.000000
0.000000
0.000000
0.000000
0.000000
2449.876221
285.758942
0.000000
0.000000
2441.190674
821.986938
0.000000
0.000000
1577.627808
459.288574
0.000000
0.000000
1577.164307
336.210571
0.000000
0.000000
2852.062256
2129.446777
0.000000
0.000000
2712.255371
1499.844971
0.000000
0.000000
1486.748291
398.238495
0.000000
0.000000
1032.869141
0.000000
0.000000
0.000000
2186.210938
2540.088867
0.000000
0.000000
558.637695
0.000000
0.000000
0.000000
2369.062744
0.000000
0.000000
0.000000
2364.189941
0.000000
0.000000
0.000000
0.000000
0.000000
0.000000
0.000000
0.000000
0.000000
0.000000
0.000000
0.000000
0.000000
0.000000
0.000000
0.000000
0.000000
0.000000
0.000000
0.000000
0.000000
0.000000
0.000000
0.000000
0.000000
0.000000
0.000000
0.000000
0.000000
0.000000
0.000000
0.000000
0.000000
0.000000
0.000000
0.000000
0.000000
0.000000
0.000000
0.000000
0.000000
0.000000
0.000000
0.000000
0.000000
0.000000
0.000000
0.000000
0.000000
0.000000
0.000000
0.000000
0.000000
0.000000
0.000000
0.000000
0.000000
0.000000
0.000000
0.000000
0.000000
0.000000
0.000000
0.000000
0.000000
0.000000
0.000000
0.000000
0.000000
0.000000
0.000000
0.000000
0.000000
0.000000
0.000000
0.000000
0.000000
0.000000
0.000000
0.000000
0.000000
0.000000
0.000000
0.000000
0.000000
0.000000
0.000000
0.000000
0.000000
0.000000
0.000000
0.000000
0.000000
0.000000
0.000000
0.000000
0.000000
0.000000
0.000000
0.000000
0.000000
0.000000
0.000000
0.000000
0.000000
0.000000
0.000000
0.000000
0.000000
0.000000
0.000000
0.000000
0.000000
0.000000
0.000000
0.000000
0.000000
0.000000
0.000000
0.000000
0.000000
0.000000
0.000000
0.000000
0.000000
0.000000
0.000000
0.000000
0.000000
0.000000
0.000000
0.000000
0.000000
0.000000
0.000000
0.000000
0.000000
0.000000
0.000000
0.000000
0.000000
0.000000
0.000000
0.000000
0.000000
0.000000
0.000000
0.000000
0.000000
0.000000
0.000000
0.000000
0.000000
0.000000
0.000000
0.000000
0.000000
0.000000
0.000000
0.000000
0.000000
0.000000
0.000000
0.000000
0.000000
0.000000
0.000000
0.000000
0.000000
0.000000
0.000000
0.000000
0.000000
0.000000
0.000000
0.000000
0.000000
0.000000
0.000000
0.000000
0.000000
0.000000
0.000000
0.000000
0.000000
</DataArray>
</PointData>
<Cells>
<DataArray type='Int32' Name='connectivity' format='ascii'>
0
1
2
3
4
5
6
7
8
9
10
11
12
13
14
15
16
17
18
19
20
21
22
23
24
25
26
27
28
29
30
31
32
33
34
35
36
37
38
39
40
41
42
43
44
45
46
47
48
49
50
51
52
53
54
55
56
57
58
59
60
61
62
63
64
65
66
67
68
69
70
71
72
73
74
75
76
77
78
79
80
81
82
83
84
85
86
87
88
89
90
91
92
93
94
95
96
97
98
99
100
101
102
103
104
105
106
107
108
109
110
111
112
113
114
115
116
117
118
119
120
121
122
123
124
125
126
127
128
129
130
131
132
133
134
135
136
137
138
139
140
141
142
143
144
145
146
147
148
149
150
151
152
153
154
155
156
157
158
159
160
161
162
163
164
165
166
167
168
169
170
171
172
173
174
175
176
177
178
179
180
181
182
183
184
185
186
187
188
189
190
191
192
193
194
195
196
197
198
199
200
201
202
203
204
205
206
207
208
209
210
211
212
213
214
215
216
217
218
219
220
221
222
223
224
225
226
227
228
229
230
231
232
233
234
235
236
237
238
239
240
241
242
243
244
245
246
247
248
249
250
251
252
253
254
255
256
257
258
259
260
261
262
263
264
265
266
267
268
269
270
271
272
273
274
275
276
277
278
279
280
281
282
283
284
285
286
287
288
289
290
291
292
293
294
295
296
297
298
299
300
301
302
303
304
305
306
307
308
309
310
311
312
313
314