<?xml version='1.0' encoding='UTF-8'?>
<VTKFile xmlns='VTK' byte_order='LittleEndian' version='0.1' type='UnstructuredGrid'>
<UnstructuredGrid>
<Piece NumberOfCells='584' NumberOfPoints='584'>
<Points>
<DataArray NumberOfComponents='3' type='Float32' Name='Position' format='ascii'>
-0.075000 -0.075000 0.000000
-0.075000 -0.050000 0.000000
-0.075000 -0.025000 0.000000
-0.075000 0.000000 0.000000
-0.075000 0.025000 0.000000
-0.075000 0.050000 0.000000
-0.075000 0.075000 0.000000
-0.075000 0.100000 0.000000
-0.075000 0.125000 0.000000
-0.075000 0.150000 0.000000
-0.075000 0.175000 0.000000
-0.075000 0.200000 0.000000
-0.075000 0.225000 0.000000
-0.075000 0.250000 0.000000
-0.075000 0.275000 0.000000
-0.075000 0.300000 0.000000
-0.075000 0.325000 0.000000
-0.075000 0.350000 0.000000
-0.075000 0.375000 0.000000
-0.075000 0.400000 0.000000
-0.075000 0.425000 0.000000
-0.075000 0.450000 0.000000
-0.075000 0.475000 0.000000
-0.075000 0.500000 0.000000
-0.075000 0.525000 0.000000
-0.075000 0.550000 0.000000
-0.075000 0.575000 0.000000
-0.075000 0.600000 0.000000
-0.050000 -0.075000 0.000000
-0.050000 -0.050000 0.000000
-0.050000 -0.025000 0.000000
-0.050000 0.000000 0.000000
-0.050000 0.025000 0.000000
-0.050000 0.050000 0.000000
-0.050000 0.075000 0.000000
-0.050000 0.100000 0.000000
-0.050000 0.125000 0.000000
-0.050000 0.150000 0.000000
-0.050000 0.175000 0.000000
-0.050000 0.200000 0.000000
-0.050000 0.225000 0.000000
-0.050000 0.250000 0.000000
-0.050000 0.275000 0.000000
-0.050000 0.300000 0.000000
-0.050000 0.325000 0.000000
-0.050000 0.350000 0.000000
-0.050000 0.375000 0.000000
-0.050000 0.400000 0.000000
-0.050000 0.425000 0.000000
-0.050000 0.450000 0.000000
-0.050000 0.475000 0.000000
-0.050000 0.500000 0.000000
-0.050000 0.525000 0.000000
-0.050000 0.550000 0.000000
-0.050000 0.575000 0.000000
-0.050000 0.600000 0.000000
-0.025000 -0.075000 0.000000
-0.025000 -0.050000 0.000000
-0.025000 -0.025000 0.000000
-0.025000 0.000000 0.000000
-0.025000 0.025000 0.000000
-0.025000 0.050000 0.000000
-0.025000 0.075000 0.000000
-0.025000 0.100000 0.000000
-0.025000 0.125000 0.000000
-0.025000 0.150000 0.000000
-0.025000 0.175000 0.000000
-0.025000 0.200000 0.000000
-0.025000 0.225000 0.000000
-0.025000 0.250000 0.000000
-0.025000 0.275000 0.000000
-0.025000 0.300000 0.000000
-0.025000 0.325000 0.000000
-0.025000 0.350000 0.000000
-0.025000 0.375000 0.000000
-0.025000 0.400000 0.000000
-0.025000 0.425000 0.000000
-0.025000 0.450000 0.000000
-0.025000 0.475000 0.000000
-0.025000 0.500000 0.000000
-0.025000 0.525000 0.000000
-0.025000 0.550000 0.000000
-0.025000 0.575000 0.000000
-0.025000 0.600000 0.000000
0.000000 -0.075000 0.000000
0.000000 -0.050000 0.000000
0.000000 -0.025000 0.000000
0.000000 0.000000 0.000000
0.000000 0.025000 0.000000
0.000000 0.050000 0.000000
0.000000 0.075000 0.000000
0.000000 0.100000 0.000000
0.000000 0.125000 0.000000
0.000000 0.150000 0.000000
0.000000 0.175000 0.000000
0.000000 0.200000 0.000000
0.000000 0.225000 0.000000
0.000000 0.250000 0.000000
0.000000 0.275000 0.000000
0.000000 0.300000 0.000000
0.000000 0.325000 0.000000
0.000000 0.350000 0.000000
0.000000 0.375000 0.000000
0.000000 0.400000 0.000000
0.000000 0.425000 0.000000
0.000000 0.450000 0.000000
0.000000 0.475000 0.000000
0.000000 0.500000 0.000000
0.000000 0.525000 0.000000
0.000000 0.550000 0.000000
0.000000 0.575000 0.000000
0.000000 0.600000 0.000000
0.025000 -0.075000 0.000000
0.025000 -0.050000 0.000000
0.025000 -0.025000 0.000000
0.025000 0.000000 0.000000
0.243943 0.061046 0.000000
0.249803 0.021600 0.000000
0.182664 0.059740 0.000000
0.192557 0.020164 0.000000
0.331364 0.025376 0.000000
0.092284 0.042151 0.000000
0.408539 0.028498 0.000000
0.275719 0.034025 0.000000
0.226474 0.027870 0.000000
0.150953 0.077223 0.000000
0.296052 0.022865 0.000000
0.181245 0.101558 0.000000
0.165795 0.026964 0.000000
0.062159 0.019207 0.000000
0.098009 0.063659 0.000000
0.028367 0.035071 0.000000
0.125935 0.040971 0.000000
0.108221 0.020425 0.000000
0.117342 0.075097 0.000000
0.143907 0.025713 0.000000
0.050000 -0.075000 0.000000
0.050000 -0.050000 0.000000
0.050000 -0.025000 0.000000
0.050000 0.000000 0.000000
0.324160 0.080601 0.000000
0.356310 0.236473 0.000000
0.378394 0.192156 0.000000
0.036308 0.109959 0.000000
0.130686 0.129042 0.000000
0.584796 0.057891 0.000000
0.304390 0.103359 0.000000
0.708530 0.047772 0.000000
0.335222 0.059469 0.000000
0.364005 0.089460 0.000000
0.158526 0.116285 0.000000
0.382899 0.045242 0.000000
0.088096 0.082695 0.000000
0.357417 0.119159 0.000000
0.197404 0.078810 0.000000
0.136008 0.108053 0.000000
0.201569 0.044272 0.000000
0.313207 0.039544 0.000000
0.139087 0.053951 0.000000
0.167760 0.051519 0.000000
0.075000 -0.075000 0.000000
0.075000 -0.050000 0.000000
0.075000 -0.025000 0.000000
0.075000 0.000000 0.000000
0.331862 0.103176 0.000000
0.266869 0.138937 0.000000
0.519683 0.033848 0.000000
0.436223 0.019847 0.000000
0.713021 0.093795 0.000000
0.775240 0.025366 0.000000
0.783920 0.048782 0.000000
0.031301 0.150837 0.000000
0.677834 0.077984 0.000000
0.754110 0.059492 0.000000
0.557820 0.019469 0.000000
0.347330 0.163521 0.000000
0.278257 0.051436 0.000000
0.350062 0.073494 0.000000
0.353965 0.022723 0.000000
0.249104 0.107299 0.000000
0.306415 0.061416 0.000000
0.104163 0.125925 0.000000
0.250948 0.077444 0.000000
0.232891 0.044433 0.000000
0.100000 -0.075000 0.000000
0.100000 -0.050000 0.000000
0.100000 -0.025000 0.000000
0.100000 0.000000 0.000000
0.611324 0.021256 0.000000
0.535668 0.036941 0.000000
0.628394 0.050169 0.000000
0.878580 0.027577 0.000000
0.358747 0.046112 0.000000
0.860084 0.024374 0.000000
0.807083 0.099795 0.000000
0.435232 0.059089 0.000000
0.798454 0.030755 0.000000
0.815285 0.051814 0.000000
0.580983 0.030853 0.000000
0.560044 0.087961 0.000000
0.729994 0.076921 0.000000
0.739419 0.046660 0.000000
0.404544 0.098816 0.000000
0.385634 0.025595 0.000000
0.661075 0.021069 0.000000
0.537974 0.119270 0.000000
0.506442 0.073760 0.000000
0.392094 0.069081 0.000000
0.125000 -0.075000 0.000000
0.125000 -0.050000 0.000000
0.125000 -0.025000 0.000000
0.125000 0.000000 0.000000
0.818789 0.078556 0.000000
0.891454 0.100623 0.000000
0.994963 0.108123 0.000000
0.908017 0.022870 0.000000
0.832119 0.161925 0.000000
0.725935 0.023231 0.000000
0.502577 0.138081 0.000000
0.740944 0.157532 0.000000
0.922371 0.074580 0.000000
0.840840 0.073874 0.000000
0.937691 0.066541 0.000000
0.730218 0.130872 0.000000
0.639140 0.031640 0.000000
0.673674 0.058484 0.000000
0.500774 0.023753 0.000000
0.707727 0.068033 0.000000
0.619567 0.093306 0.000000
0.263706 0.100126 0.000000
0.651411 0.060487 0.000000
0.188048 0.113096 0.000000
0.150000 -0.075000 0.000000
0.150000 -0.050000 0.000000
0.150000 -0.025000 0.000000
0.150000 0.000000 0.000000
0.462748 0.103015 0.000000
0.983422 0.024371 0.000000
0.844225 0.124254 0.000000
0.483789 0.067755 0.000000
0.948439 0.046024 0.000000
0.215144 0.080662 0.000000
0.987985 0.086377 0.000000
0.614654 0.073569 0.000000
1.002931 0.065409 0.000000
0.909187 0.107659 0.000000
0.914487 0.043784 0.000000
0.824717 0.021483 0.000000
0.878340 0.052078 0.000000
0.898864 0.066606 0.000000
0.854506 0.057539 0.000000
0.747865 0.091246 0.000000
0.752383 0.025284 0.000000
0.774289 0.097727 0.000000
0.773748 0.074426 0.000000
0.536608 0.102381 0.000000
0.175000 -0.075000 0.000000
0.175000 -0.050000 0.000000
0.175000 -0.025000 0.000000
0.175000 0.000000 0.000000
0.111366 0.091401 0.000000
0.834677 0.141591 0.000000
0.986367 0.149026 0.000000
0.985540 0.125748 0.000000
0.971274 0.095594 0.000000
0.304749 0.134636 0.000000
0.931521 0.028427 0.000000
0.429832 0.098535 0.000000
0.484592 0.032237 0.000000
0.959945 0.022972 0.000000
0.774748 0.143135 0.000000
0.862980 0.109363 0.000000
0.692299 0.117276 0.000000
0.967537 0.066179 0.000000
0.979295 0.050888 0.000000
0.564069 0.046042 0.000000
1.004075 0.034362 0.000000
0.662443 0.111809 0.000000
0.480297 0.164458 0.000000
0.702445 0.141955 0.000000
0.200000 -0.075000 0.000000
0.200000 -0.050000 0.000000
0.200000 -0.025000 0.000000
0.200000 0.000000 0.000000
0.584767 0.082551 0.000000
0.221005 0.101032 0.000000
0.469843 0.084283 0.000000
0.934152 0.117151 0.000000
0.468997 0.045383 0.000000
0.594999 0.093718 0.000000
0.738021 0.110812 0.000000
0.952429 0.113816 0.000000
0.652706 0.147246 0.000000
0.288592 0.142821 0.000000
0.974454 0.160189 0.000000
0.835128 0.040048 0.000000
0.076294 0.034741 0.000000
0.607338 0.041622 0.000000
0.824583 0.114369 0.000000
0.321605 0.125833 0.000000
0.854571 0.093975 0.000000
0.573397 0.144239 0.000000
0.941781 0.099141 0.000000
0.796213 0.071051 0.000000
0.225000 -0.075000 0.000000
0.225000 -0.050000 0.000000
0.225000 -0.025000 0.000000
0.225000 0.000000 0.000000
0.498059 0.171807 0.000000
0.928679 0.530734 0.000000
0.774400 0.117589 0.000000
0.283795 0.074198 0.000000
0.286541 0.094659 0.000000
0.021366 0.119732 0.000000
0.693385 0.099750 0.000000
1.003737 0.144759 0.000000
0.787888 0.143658 0.000000
0.371281 0.127818 0.000000
0.845291 0.167046 0.000000
0.222060 0.122727 0.000000
0.451115 0.035305 0.000000
0.645886 0.082525 0.000000
0.254388 0.139866 0.000000
0.518287 0.087388 0.000000
0.679151 0.035322 0.000000
0.033046 0.082269 0.000000
0.442158 0.195251 0.000000
0.455390 0.071922 0.000000
0.250000 -0.075000 0.000000
0.250000 -0.050000 0.000000
0.250000 -0.025000 0.000000
0.250000 0.000000 0.000000
0.888825 0.119124 0.000000
0.626852 0.117819 0.000000
0.546518 0.150636 0.000000
0.535814 0.137529 0.000000
0.404114 0.124495 0.000000
0.646983 0.104244 0.000000
0.461631 0.160787 0.000000
0.418118 0.077723 0.000000
0.417588 0.048403 0.000000
0.748863 0.134036 0.000000
0.383813 0.088006 0.000000
0.048660 0.161461 0.000000
0.341698 0.132953 0.000000
0.700303 0.026174 0.000000
0.551169 0.065467 0.000000
0.422767 0.117728 0.000000
0.527301 0.070466 0.000000
0.880124 0.075013 0.000000
0.043137 0.091309 0.000000
0.803491 0.122556 0.000000
0.275000 -0.075000 0.000000
0.275000 -0.050000 0.000000
0.275000 -0.025000 0.000000
0.275000 0.000000 0.000000
0.300000 -0.075000 0.000000
0.300000 -0.050000 0.000000
0.300000 -0.025000 0.000000
0.300000 0.000000 0.000000
0.325000 -0.075000 0.000000
0.325000 -0.050000 0.000000
0.325000 -0.025000 0.000000
0.325000 0.000000 0.000000
0.350000 -0.075000 0.000000
0.350000 -0.050000 0.000000
0.350000 -0.025000 0.000000
0.350000 0.000000 0.000000
0.375000 -0.075000 0.000000
0.375000 -0.050000 0.000000
0.375000 -0.025000 0.000000
0.375000 0.000000 0.000000
0.400000 -0.075000 0.000000
0.400000 -0.050000 0.000000
0.400000 -0.025000 0.000000
0.400000 0.000000 0.000000
0.425000 -0.075000 0.000000
0.425000 -0.050000 0.000000
0.425000 -0.025000 0.000000
0.425000 0.000000 0.000000
0.450000 -0.075000 0.000000
0.450000 -0.050000 0.000000
0.450000 -0.025000 0.000000
0.450000 0.000000 0.000000
0.475000 -0.075000 0.000000
0.475000 -0.050000 0.000000
0.475000 -0.025000 0.000000
0.475000 0.000000 0.000000
0.500000 -0.075000 0.000000
0.500000 -0.050000 0.000000
0.500000 -0.025000 0.000000
0.500000 0.000000 0.000000
0.525000 -0.075000 0.000000
0.525000 -0.050000 0.000000
0.525000 -0.025000 0.000000
0.525000 0.000000 0.000000
0.550000 -0.075000 0.000000
0.550000 -0.050000 0.000000
0.550000 -0.025000 0.000000
0.550000 0.000000 0.000000
0.575000 -0.075000 0.000000
0.575000 -0.050000 0.000000
0.575000 -0.025000 0.000000
0.575000 0.000000 0.000000
0.600000 -0.075000 0.000000
0.600000 -0.050000 0.000000
0.600000 -0.025000 0.000000
0.600000 0.000000 0.000000
0.625000 -0.075000 0.000000
0.625000 -0.050000 0.000000
0.625000 -0.025000 0.000000
0.625000 0.000000 0.000000
0.650000 -0.075000 0.000000
0.650000 -0.050000 0.000000
0.650000 -0.025000 0.000000
0.650000 0.000000 0.000000
0.675000 -0.075000 0.000000
0.675000 -0.050000 0.000000
0.675000 -0.025000 0.000000
0.675000 0.000000 0.000000
0.700000 -0.075000 0.000000
0.700000 -0.050000 0.000000
0.700000 -0.025000 0.000000
0.700000 0.000000 0.000000
0.725000 -0.075000 0.000000
0.725000 -0.050000 0.000000
0.725000 -0.025000 0.000000
0.725000 0.000000 0.000000
0.750000 -0.075000 0.000000
0.750000 -0.050000 0.000000
0.750000 -0.025000 0.000000
0.750000 0.000000 0.000000
0.775000 -0.075000 0.000000
0.775000 -0.050000 0.000000
0.775000 -0.025000 0.000000
0.775000 0.000000 0.000000
0.800000 -0.075000 0.000000
0.800000 -0.050000 0.000000
0.800000 -0.025000 0.000000
0.800000 0.000000 0.000000
0.825000 -0.075000 0.000000
0.825000 -0.050000 0.000000
0.825000 -0.025000 0.000000
0.825000 0.000000 0.000000
0.850000 -0.075000 0.000000
0.850000 -0.050000 0.000000
0.850000 -0.025000 0.000000
0.850000 0.000000 0.000000
0.875000 -0.075000 0.000000
0.875000 -0.050000 0.000000
0.875000 -0.025000 0.000000
0.875000 0.000000 0.000000
0.900000 -0.075000 0.000000
0.900000 -0.050000 0.000000
0.900000 -0.025000 0.000000
0.900000 0.000000 0.000000
0.925000 -0.075000 0.000000
0.925000 -0.050000 0.000000
0.925000 -0.025000 0.000000
0.925000 0.000000 0.000000
0.950000 -0.075000 0.000000
0.950000 -0.050000 0.000000
0.950000 -0.025000 0.000000
0.950000 0.000000 0.000000
0.975000 -0.075000 0.000000
0.975000 -0.050000 0.000000
0.975000 -0.025000 0.000000
0.975000 0.000000 0.000000
1.000000 -0.075000 0.000000
1.000000 -0.050000 0.000000
1.000000 -0.025000 0.000000
1.000000 0.000000 0.000000
1.025000 -0.075000 0.000000
1.025000 -0.050000 0.000000
1.025000 -0.025000 0.000000
1.025000 0.000000 0.000000
1.025000 0.025000 0.000000
1.025000 0.050000 0.000000
1.025000 0.075000 0.000000
1.025000 0.100000 0.000000
1.025000 0.125000 0.000000
1.025000 0.150000 0.000000
1.025000 0.175000 0.000000
1.025000 0.200000 0.000000
1.025000 0.225000 0.000000
1.025000 0.250000 0.000000
1.025000 0.275000 0.000000
1.025000 0.300000 0.000000
1.025000 0.325000 0.000000
1.025000 0.350000 0.000000
1.025000 0.375000 0.000000
1.025000 0.400000 0.000000
1.025000 0.425000 0.000000
1.025000 0.450000 0.000000
1.025000 0.475000 0.000000
1.025000 0.500000 0.000000
1.025000 0.525000 0.000000
1.025000 0.550000 0.000000
1.025000 0.575000 0.000000
1.025000 0.600000 0.000000
1.050000 -0.075000 0.000000
1.050000 -0.050000 0.000000
1.050000 -0.025000 0.000000
1.050000 0.000000 0.000000
1.050000 0.025000 0.000000
1.050000 0.050000 0.000000
1.050000 0.075000 0.000000
1.050000 0.100000 0.000000
1.050000 0.125000 0.000000
1.050000 0.150000 0.000000
1.050000 0.175000 0.000000
1.050000 0.200000 0.000000
1.050000 0.225000 0.000000
1.050000 0.250000 0.000000
1.050000 0.275000 0.000000
1.050000 0.300000 0.000000
1.050000 0.325000 0.000000
1.050000 0.350000 0.000000
1.050000 0.375000 0.000000
1.050000 0.400000 0.000000
1.050000 0.425000 0.000000
1.050000 0.450000 0.000000
1.050000 0.475000 0.000000
1.050000 0.500000 0.000000
1.050000 0.525000 0.000000
1.050000 0.550000 0.000000
1.050000 0.575000 0.000000
1.050000 0.600000 0.000000
1.075000 -0.075000 0.000000
1.075000 -0.050000 0.000000
1.075000 -0.025000 0.000000
1.075000 0.000000 0.000000
1.075000 0.025000 0.000000
1.075000 0.050000 0.000000
1.075000 0.075000 0.000000
1.075000 0.100000 0.000000
1.075000 0.125000 0.000000
1.075000 0.150000 0.000000
1.075000 0.175000 0.000000
1.075000 0.200000 0.000000
1.075000 0.225000 0.000000
1.075000 0.250000 0.000000
1.075000 0.275000 0.000000
1.075000 0.300000 0.000000
1.075000 0.325000 0.000000
1.075000 0.350000 0.000000
1.075000 0.375000 0.000000
1.075000 0.400000 0.000000
1.075000 0.425000 0.000000
1.075000 0.450000 0.000000
1.075000 0.475000 0.000000
1.075000 0.500000 0.000000
1.075000 0.525000 0.000000
1.075000 0.550000 0.000000
1.075000 0.575000 0.000000
1.075000 0.600000 0.000000
1.100000 -0.075000 0.000000
1.100000 -0.050000 0.000000
1.100000 -0.025000 0.000000
1.100000 0.000000 0.000000
1.100000 0.025000 0.000000
1.100000 0.050000 0.000000
1.100000 0.075000 0.000000
1.100000 0.100000 0.000000
1.100000 0.125000 0.000000
1.100000 0.150000 0.000000
1.100000 0.175000 0.000000
1.100000 0.200000 0.000000
1.100000 0.225000 0.000000
1.100000 0.250000 0.000000
1.100000 0.275000 0.000000
1.100000 0.300000 0.000000
1.100000 0.325000 0.000000
1.100000 0.350000 0.000000
1.100000 0.375000 0.000000
1.100000 0.400000 0.000000
1.100000 0.425000 0.000000
1.100000 0.450000 0.000000
1.100000 0.475000 0.000000
1.100000 0.500000 0.000000
1.100000 0.525000 0.000000
1.100000 0.550000 0.000000
1.100000 0.575000 0.000000
1.100000 0.600000 0.000000
</DataArray>
</Points>
<PointData>
<DataArray NumberOfComponents='1' type='Int32' Name='ParticleType' format='ascii'>
3
3
3
3
3
3
3
3
3
3
3
3
3
3
3
3
3
3
3
3
3
3
3
3
3
3
2
2
3
3
3
3
3
3
3
3
3
3
3
3
3
3
3
3
3
3
3
3
3
3
3
3
3
3
2
2
3
3
2
2
2
2
2
2
2
2
2
2
2
2
2
2
2
2
2
2
2
2
2
2
2
2
2
2
3
3
2
2
2
2
2
2
2
2
2
2
2
2
2
2
2
2
2
2
2
2
2
2
2
2
2
2
3
3
2
2
0
0
0
0
0
0
0
0
0
0
0
0
0
0
0
0
0
0
0
0
3
3
2
2
0
0
0
0
0
0
0
0
0
0
0
0
0
0
0
0
0
0
0
0
3
3
2
2
0
0
0
0
0
0
0
0
0
0
0
0
0
0
0
0
0
0
0
0
3
3
2
2
0
0
0
0
0
0
0
0
0
0
0
0
0
0
0
0
0
0
0
0
3
3
2
2
0
0
0
0
0
0
0
0
0
0
0
0
0
0
0
0
0
0
0
0
3
3
2
2
0
0
0
0
0
0
0
0
0
0
0
0
0
0
0
0
0
0
0
0
3
3
2
2
0
0
0
0
0
0
0
0
0
0
0
0
0
0
0
0
0
0
0
0
3
3
2
2
0
0
0
0
0
0
0
0
0
0
0
0
0
0
0
0
0
0
0
0
3
3
2
2
0
0
0
0
0
0
0
0
0
0
0
0
0
0
0
0
0
0
0
0
3
3
2
2
0
0
0
0
0
0
0
0
0
0
0
0
0
0
0
0
0
0
0
0
3
3
2
2
3
3
2
2
3
3
2
2
3
3
2
2
3
3
2
2
3
3
2
2
3
3
2
2
3
3
2
2
3
3
2
2
3
3
2
2
3
3
2
2
3
3
2
2
3
3
2
2
3
3
2
2
3
3
2
2
3
3
2
2
3
3
2
2
3
3
2
2
3
3
2
2
3
3
2
2
3
3
2
2
3
3
2
2
3
3
2
2
3
3
2
2
3
3
2
2
3
3
2
2
3
3
2
2
3
3
2
2
3
3
2
2
3
3
2
2
3
3
2
2
2
2
2
2
2
2
2
2
2
2
2
2
2
2
2
2
2
2
2
2
2
2
2
2
3
3
2
2
2
2
2
2
2
2
2
2
2
2
2
2
2
2
2
2
2
2
2
2
2
2
2
2
3
3
3
3
3
3
3
3
3
3
3
3
3
3
3
3
3
3
3
3
3
3
3
3
3
3
2
2
3
3
3
3
3
3
3
3
3
3
3
3
3
3
3
3
3
3
3
3
3
3
3
3
3
3
2
2
</DataArray>
<DataArray NumberOfComponents='1' type='Float32' Name='Velocity' format='ascii'>
0.000000
0.000000
0.000000
0.000000
0.000000
0.000000
0.000000
0.000000
0.000000
0.000000
0.000000
0.000000
0.000000
0.000000
0.000000
0.000000
0.000000
0.000000
0.000000
0.000000
0.000000
0.000000
0.000000
0.000000
0.000000
0.000000
0.000000
0.000000
0.000000
0.000000
0.000000
0.000000
0.000000
0.000000
0.000000
0.000000
0.000000
0.000000
0.000000
0.000000
0.000000
0.000000
0.000000
0.000000
0.000000
0.000000
0.000000
0.000000
0.000000
0.000000
0.000000
0.000000
0.000000
0.000000
0.000000
0.000000
0.000000
0.000000
0.000000
0.000000
0.000000
0.000000
0.000000
0.000000
0.000000
0.000000
0.000000
0.000000
0.000000
0.000000
0.000000
0.000000
0.000000
0.000000
0.000000
0.000000
0.000000
0.000000
0.000000
0.000000
0.000000
0.000000
0.000000
0.000000
0.000000
0.000000
0.000000
0.000000
0.000000
0.000000
0.000000
0.000000
0.000000
0.000000
0.000000
0.000000
0.000000
0.000000
0.000000
0.000000
0.000000
0.000000
0.000000
0.000000
0.000000
0.000000
0.000000
0.000000
0.000000
0.000000
0.000000
0.000000
0.000000
0.000000
0.000000
0.000000
0.803402
0.425139
0.605284
0.082408
0.453394
0.139032
0.599376
0.272495
0.261649
0.574701
0.253902
0.793719
0.376140
0.344488
0.831555
0.726793
0.362624
0.466228
0.626950
0.340364
0.000000
0.000000
0.000000
0.000000
0.688743
1.340026
0.926566
1.435578
1.998683
0.661520
0.776458
0.395978
0.811526
0.994102
1.684223
0.806505
0.448129
1.502391
1.079211
1.770333
0.211758
0.565685
0.698097
0.836818
0.000000
0.000000
0.000000
0.000000
0.962381
1.626368
0.472410
0.460355
0.549860
0.471220
0.342522
1.089969
0.972741
0.388991
0.515925
1.149890
0.268126
0.380835
0.608267
1.247909
0.234351
2.118408
0.220571
0.465707
0.000000
0.000000
0.000000
0.000000
0.596525
0.679336
0.328551
0.298179
0.989897
0.269437
0.450040
1.071734
0.530451
0.337674
0.406789
0.960489
0.818496
0.287435
1.252374
0.492089
0.524431
1.895632
0.943066
1.028455
0.000000
0.000000
0.000000
0.000000
0.656501
0.532610
0.226446
0.239210
0.734802
0.529964
1.609887
0.888753
0.493459
0.634319
0.341901
0.739198
0.382558
0.523586
0.235067
0.630989
1.268997
1.288366
0.774040
1.540379
0.000000
0.000000
0.000000
0.000000
1.454100
0.204951
1.271848
0.280638
0.251006
1.448879
0.090208
0.923394
0.093133
0.139168
0.193393
0.449446
0.256318
0.064399
0.406284
0.602499
0.634217
0.391717
0.472973
1.228285
0.000000
0.000000
0.000000
0.000000
1.733098
0.784064
0.089681
0.282810
0.436064
1.834683
0.123682
1.335684
0.605343
0.402627
0.816194
0.694112
0.781351
0.663139
0.293002
0.609810
0.063239
0.945983
1.367154
1.095974
0.000000
0.000000
0.000000
0.000000
0.667302
1.522115
0.893092
0.337015
0.491163
0.837683
0.489583
0.422264
1.140188
1.858897
0.556465
0.622067
0.577608
0.695899
0.516777
1.627092
0.574860
0.593241
0.201930
0.498868
0.000000
0.000000
0.000000
0.000000
0.985929
3.885337
0.999195
0.705410
1.269588
0.364499
0.820115
0.116573
0.744040
1.508405
0.951681
1.613137
0.357142
1.228142
1.601724
0.923999
0.409092
1.297045
0.596083
0.734227
0.000000
0.000000
0.000000
0.000000
1.168437
1.072713
1.204424
0.893448
0.780115
0.797002
1.485267
0.691079
0.916734
0.857346
0.636277
0.228776
1.616601
0.520972
0.186056
0.218397
0.825214
0.783972
1.111771
1.100957
0.000000
0.000000
0.000000
0.000000
0.000000
0.000000
0.000000
0.000000
0.000000
0.000000
0.000000
0.000000
0.000000
0.000000
0.000000
0.000000
0.000000
0.000000
0.000000
0.000000
0.000000
0.000000
0.000000
0.000000
0.000000
0.000000
0.000000
0.000000
0.000000
0.000000
0.000000
0.000000
0.000000
0.000000
0.000000
0.000000
0.000000
0.000000
0.000000
0.000000
0.000000
0.000000
0.000000
0.000000
0.000000
0.000000
0.000000
0.000000
0.000000
0.000000
0.000000
0.000000
0.000000
0.000000
0.000000
0.000000
0.000000
0.000000
0.000000
0.000000
0.000000
0.000000
0.000000
0.000000
0.000000
0.000000
0.000000
0.000000
0.000000
0.000000
0.000000
0.000000
0.000000
0.000000
0.000000
0.000000
0.000000
0.000000
0.000000
0.000000
0.000000
0.000000
0.000000
0.000000
0.000000
0.000000
0.000000
0.000000
0.000000
0.000000
0.000000
0.000000
0.000000
0.000000
0.000000
0.000000
0.000000
0.000000
0.000000
0.000000
0.000000
0.000000
0.000000
0.000000
0.000000
0.000000
0.000000
0.000000
0.000000
0.000000
0.000000
0.000000
0.000000
0.000000
0.000000
0.000000
0.000000
0.000000
0.000000
0.000000
0.000000
0.000000
0.000000
0.000000
0.000000
0.000000
0.000000
0.000000
0.000000
0.000000
0.000000
0.000000
0.000000
0.000000
0.000000
0.000000
0.000000
0.000000
0.000000
0.000000
0.000000
0.000000
0.000000
0.000000
0.000000
0.000000
0.000000
0.000000
0.000000
0.000000
0.000000
0.000000
0.000000
0.000000
0.000000
0.000000
0.000000
0.000000
0.000000
0.000000
0.000000
0.000000
0.000000
0.000000
0.000000
0.000000
0.000000
0.000000
0.000000
0.000000
0.000000
0.000000
0.000000
0.000000
0.000000
0.000000
0.000000
0.000000
0.000000
0.000000
0.000000
0.000000
0.000000
0.000000
0.000000
0.000000
0.000000
0.000000
0.000000
0.000000
0.000000
0.000000
0.000000
0.000000
0.000000
0.000000
0.000000
0.000000
0.000000
0.000000
0.000000
0.000000
0.000000
0.000000
0.000000
0.000000
0.000000
0.000000
0.000000
0.000000
0.000000
0.000000
0.000000
0.000000
0.000000
0.000000
0.000000
0.000000
0.000000
0.000000
0.000000
0.000000
0.000000
0.000000
0.000000
0.000000
0.000000
0.000000
0.000000
0.000000
0.000000
0.000000
</DataArray>
<DataArray NumberOfComponents='1' type='Float32' Name='pressure' format='ascii'>
0.000000
0.000000
0.000000
0.000000
0.000000
0.000000
0.000000
0.000000
0.000000
0.000000
0.000000
0.000000
0.000000
0.000000
0.000000
0.000000
0.000000
0.000000
0.000000
0.000000
0.000000
0.000000
0.000000
0.000000
0.000000
0.000000
0.000000
0.000000
0.000000
0.000000
0.000000
0.000000
0.000000
0.000000
0.000000
0.000000
0.000000
0.000000
0.000000
0.000000
0.000000
0.000000
0.000000
0.000000
0.000000
0.000000
0.000000
0.000000
0.000000
0.000000
0.000000
0.000000
0.000000
0.000000
0.000000
0.000000
0.000000
0.000000
0.000000
0.000000
0.000000
0.000000
0.000000
0.000000
588.078308
0.000000
0.000000
0.000000
0.000000
0.000000
0.000000
0.000000
0.000000
0.000000
0.000000
0.000000
0.000000
0.000000
0.000000
0.000000
0.000000
0.000000
0.000000
0.000000
0.000000
0.000000
0.000000
0.000000
0.000000
0.000000
0.000000
0.000000
0.000000
0.000000
0.000000
0.000000
0.000000
0.000000
0.000000
0.000000
0.000000
0.000000
0.000000
0.000000
0.000000
0.000000
0.000000
0.000000
0.000000
0.000000
0.000000
0.000000
0.000000
0.000000
0.000000
0.000000
0.000000
0.000000
0.000000
0.000000
0.000000
0.000000
1518.428711
766.122009
29.163284
0.000000
0.000000
0.000000
309.252014
0.000000
0.000000
0.000000
1353.917969
0.000000
0.000000
0.000000
0.000000
0.000000
2899.308838
0.000000
0.000000
0.000000
0.000000
0.000000
0.000000
380.770294
0.000000
1104.654907
891.466064
0.000000
0.000000
0.000000
0.000000
0.000000
0.000000
0.000000
0.000000
1262.381958
0.000000
336.862244
0.000000
0.000000
3427.519531
3280.599609
0.000000
0.000000
365.746979
3244.581787
516.489441
1551.613770
1197.898193
0.000000
0.000000
865.576782
2784.145264
0.000000
0.000000
488.497498
1482.720947
0.000000
0.000000
0.000000
0.000000
263.646210
0.000000
0.000000
2951.149658
2002.920654
2371.315186
0.000000
1355.641113
1891.836792
0.000000
1543.652466
0.000000
1721.170898
1248.519775
1708.400635
109.612206
0.000000
1249.757080
2207.133545
1001.717773
2662.276123
2033.028687
0.000000
0.000000
0.000000
0.000000
0.000000
1233.633057
0.000000
126.133331
1791.513550
0.000000
1740.011108
0.000000
1502.513794
0.000000
0.000000
0.000000
161.945068
1020.297241
0.000000
703.786621
2063.888916
1182.557861
1929.028076
0.000000
1267.808838
1319.034668
0.000000
0.000000
0.000000
0.000000
0.000000
0.000000
3233.131836
0.000000
0.000000
844.097717
0.000000
1553.075195
1067.555054
0.000000
0.000000
2408.936523
1017.479004
806.233582
0.000000
1308.148071
1260.976196
1396.194458
761.791626
1313.954346
0.000000
0.000000
0.000000
876.378601
124.487427
0.000000
0.000000
0.000000
0.000000
942.385437
0.000000
2078.310547
0.000000
0.000000
2985.596191
0.000000
0.000000
0.000000
0.000000
1015.259766
2331.904053
2646.043701
0.000000
0.000000
0.000000
0.000000
0.000000
2084.006592
1069.283569
894.879395
0.000000
0.000000
0.000000
2099.567627
0.000000
272.853790
0.000000
0.000000
0.000000
0.000000
2068.847412
0.000000
1680.268066
90.265549
0.000000
288.522736
0.000000
1046.549927
1288.884033
0.000000
0.000000
0.000000
0.000000
0.000000
0.000000
1755.367676
0.000000
279.802795
0.000000
984.368713
2363.059570
0.000000
0.000000
0.000000
0.000000
2129.084229
1392.247681
0.000000
0.000000
1740.450073
0.000000
0.000000
2987.301270
0.000000
0.000000
1827.761597
1639.250000
0.000000
0.000000
0.000000
0.000000
0.000000
25.272331
0.000000
0.000000
768.047668
0.000000
650.562012
0.000000
0.000000
1619.813965
0.000000
0.000000
2738.148438
1600.979004
0.000000
0.000000
0.000000
0.000000
0.000000
0.000000
0.000000
0.000000
1205.547729
0.000000
0.000000
0.000000
637.728882
773.979553
0.000000
0.000000
1784.140137
2540.075928
0.000000
0.000000
638.132141
208.277847
0.000000
0.000000
540.413696
0.000000
0.000000
0.000000
3013.571289
3515.957764
0.000000
0.000000
2475.893555
0.000000
0.000000
0.000000
107.197777
0.000000
0.000000
0.000000
1053.769531
0.000000
0.000000
0.000000
612.423950
0.000000
0.000000
0.000000
3944.304199
3641.449463
0.000000
0.000000
3331.686279
1311.823242
0.000000
0.000000
3204.646973
1107.127808
0.000000
0.000000
2923.561279
1191.568115
0.000000
0.000000
3234.088379
1889.804321
0.000000
0.000000
2898.767578
1743.293701
0.000000
0.000000
1887.613159
1408.093872
0.000000
0.000000
2798.888672
3424.664307
0.000000
0.000000
1773.032959
2711.871582
0.000000
0.000000
1226.680664
388.490509
0.000000
0.000000
552.807373
0.000000
0.000000
0.000000
2796.524658
2797.092041
0.000000
0.000000
1571.735352
1679.477783
0.000000
0.000000
1171.477051
737.193420
0.000000
0.000000
2307.840088
2322.599365
0.000000
0.000000
1871.719604
1657.271118
0.000000
0.000000
2596.602783
2619.959473
0.000000
0.000000
2685.114990
2483.454346
0.000000
0.000000
948.099854
0.000000
0.000000
0.000000
1394.967773
607.540710
2686.861084
2539.282227
0.000000
0.000000
0.000000
0.000000
0.000000
0.000000
0.000000
0.000000
0.000000
0.000000
0.000000
0.000000
0.000000
0.000000
0.000000
0.000000
0.000000
0.000000
0.000000
0.000000
0.000000
0.000000
0.000000
0.000000
1542.386719
1906.781982
3367.936768
3517.421387
1851.565063
0.000000
0.000000
662.682007
0.000000
0.000000
0.000000
0.000000
0.000000
0.000000
0.000000
0.000000
0.000000
0.000000
0.000000
0.000000
0.000000
0.000000
0.000000
0.000000
0.000000
0.000000
0.000000
0.000000
0.000000
0.000000
0.000000
0.000000
0.000000
0.000000
0.000000
0.000000
0.000000
0.000000
0.000000
0.000000
0.000000
0.000000
0.000000
0.000000
0.000000
0.000000
0.000000
0.000000
0.000000
0.000000
0.000000
0.000000
0.000000
0.000000
0.000000
0.000000
0.000000
0.000000
0.000000
0.000000
0.000000
0.000000
0.000000
0.000000
0.000000
0.000000
0.000000
0.000000
0.000000
0.000000
0.000000
0.000000
0.000000
0.000000
0.000000
0.000000
0.000000
0.000000
0.000000
0.000000
0.000000
0.000000
</DataArray>
</PointData>
<Cells>
<DataArray type='Int32' Name='connectivity' format='ascii'>
0
1
2
3
4
5
6
7
8
9
10
11
12
13
14
15
16
17
18
19
20
21
22
23
24
25
26
27
28
29
30
31
32
33
34
35
36
37
38
39
40
41
42
43
44
45
46
47
48
49
50
51
52
53
54
55
56
57
58
59
60
61
62
63
64
65
66
67
68
69
70
71
72
73
74
75
76
77
78
79
80
81
82
83
84
85
86
87
88
89
90
91
92
93
94
95
96
97
98
99
100
101
102
103
104
105
106
107
108
109
110
111
112
113
114
115
116
117
118
119
120
121
122
123
124
125
126
127
128
129
130
131
132
133
134
135
136
137
138
139
140
141
142
143
144
145
146
147
148
149
150
151
152
153
154
155
156
157
158
159
160
161
162
163
164
165
166
167
168
169
170
171
172
173
174
175
176
177
178
179
180
181
182
183
184
185
186
187
188
189
190
191
192
193
194
195
196
197
198
199
200
201
202
203
204
205
206
207
208
209
210
211
212
213
214
215
216
217
218
219
220
221
222
223
224
225
226
227
228
229
230
231
232
233
234
235
236
237
238
239
240
241
242
243
244
245
246
247
248
249
250
251
252
253
254
255
256
257
258
259
260
261
262
263
264
265
266
267
268
269
270
271
272
273
274
275
276
277
278
279
280
281
282
283
284
285
286
287
288
289
290
291
292
293
294
295
296
297
298
299
300
301
302
303
304
305
306
307
308
309
310
311
312
313
314
315
316
317
318
319
320
321
322
323
324
325
326
327
328
329