<?xml version='1.0' encoding='UTF-8'?>
<VTKFile xmlns='VTK' byte_order='LittleEndian' version='0.1' type='UnstructuredGrid'>
<UnstructuredGrid>
<Piece NumberOfCells='584' NumberOfPoints='584'>
<Points>
<DataArray NumberOfComponents='3' type='Float32' Name='Position' format='ascii'>
-0.075000 -0.075000 0.000000
-0.075000 -0.050000 0.000000
-0.075000 -0.025000 0.000000
-0.075000 0.000000 0.000000
-0.075000 0.025000 0.000000
-0.075000 0.050000 0.000000
-0.075000 0.075000 0.000000
-0.075000 0.100000 0.000000
-0.075000 0.125000 0.000000
-0.075000 0.150000 0.000000
-0.075000 0.175000 0.000000
-0.075000 0.200000 0.000000
-0.075000 0.225000 0.000000
-0.075000 0.250000 0.000000
-0.075000 0.275000 0.000000
-0.075000 0.300000 0.000000
-0.075000 0.325000 0.000000
-0.075000 0.350000 0.000000
-0.075000 0.375000 0.000000
-0.075000 0.400000 0.000000
-0.075000 0.425000 0.000000
-0.075000 0.450000 0.000000
-0.075000 0.475000 0.000000
-0.075000 0.500000 0.000000
-0.075000 0.525000 0.000000
-0.075000 0.550000 0.000000
-0.075000 0.575000 0.000000
-0.075000 0.600000 0.000000
-0.050000 -0.075000 0.000000
-0.050000 -0.050000 0.000000
-0.050000 -0.025000 0.000000
-0.050000 0.000000 0.000000
-0.050000 0.025000 0.000000
-0.050000 0.050000 0.000000
-0.050000 0.075000 0.000000
-0.050000 0.100000 0.000000
-0.050000 0.125000 0.000000
-0.050000 0.150000 0.000000
-0.050000 0.175000 0.000000
-0.050000 0.200000 0.000000
-0.050000 0.225000 0.000000
-0.050000 0.250000 0.000000
-0.050000 0.275000 0.000000
-0.050000 0.300000 0.000000
-0.050000 0.325000 0.000000
-0.050000 0.350000 0.000000
-0.050000 0.375000 0.000000
-0.050000 0.400000 0.000000
-0.050000 0.425000 0.000000
-0.050000 0.450000 0.000000
-0.050000 0.475000 0.000000
-0.050000 0.500000 0.000000
-0.050000 0.525000 0.000000
-0.050000 0.550000 0.000000
-0.050000 0.575000 0.000000
-0.050000 0.600000 0.000000
-0.025000 -0.075000 0.000000
-0.025000 -0.050000 0.000000
-0.025000 -0.025000 0.000000
-0.025000 0.000000 0.000000
-0.025000 0.025000 0.000000
-0.025000 0.050000 0.000000
-0.025000 0.075000 0.000000
-0.025000 0.100000 0.000000
-0.025000 0.125000 0.000000
-0.025000 0.150000 0.000000
-0.025000 0.175000 0.000000
-0.025000 0.200000 0.000000
-0.025000 0.225000 0.000000
-0.025000 0.250000 0.000000
-0.025000 0.275000 0.000000
-0.025000 0.300000 0.000000
-0.025000 0.325000 0.000000
-0.025000 0.350000 0.000000
-0.025000 0.375000 0.000000
-0.025000 0.400000 0.000000
-0.025000 0.425000 0.000000
-0.025000 0.450000 0.000000
-0.025000 0.475000 0.000000
-0.025000 0.500000 0.000000
-0.025000 0.525000 0.000000
-0.025000 0.550000 0.000000
-0.025000 0.575000 0.000000
-0.025000 0.600000 0.000000
0.000000 -0.075000 0.000000
0.000000 -0.050000 0.000000
0.000000 -0.025000 0.000000
0.000000 0.000000 0.000000
0.000000 0.025000 0.000000
0.000000 0.050000 0.000000
0.000000 0.075000 0.000000
0.000000 0.100000 0.000000
0.000000 0.125000 0.000000
0.000000 0.150000 0.000000
0.000000 0.175000 0.000000
0.000000 0.200000 0.000000
0.000000 0.225000 0.000000
0.000000 0.250000 0.000000
0.000000 0.275000 0.000000
0.000000 0.300000 0.000000
0.000000 0.325000 0.000000
0.000000 0.350000 0.000000
0.000000 0.375000 0.000000
0.000000 0.400000 0.000000
0.000000 0.425000 0.000000
0.000000 0.450000 0.000000
0.000000 0.475000 0.000000
0.000000 0.500000 0.000000
0.000000 0.525000 0.000000
0.000000 0.550000 0.000000
0.000000 0.575000 0.000000
0.000000 0.600000 0.000000
0.025000 -0.075000 0.000000
0.025000 -0.050000 0.000000
0.025000 -0.025000 0.000000
0.025000 0.000000 0.000000
0.122445 0.052674 0.000000
0.192266 0.107630 0.000000
0.133548 0.019876 0.000000
0.175832 0.024030 0.000000
0.239110 0.035967 0.000000
0.097733 0.105549 0.000000
0.301109 0.024374 0.000000
0.198421 0.026198 0.000000
0.173336 0.045634 0.000000
0.026762 0.251468 0.000000
0.219405 0.028942 0.000000
0.054680 0.181922 0.000000
0.109206 0.034133 0.000000
0.066850 0.050888 0.000000
0.111683 0.120579 0.000000
0.046741 0.025702 0.000000
0.037661 0.201248 0.000000
0.090373 0.032016 0.000000
0.078996 0.181602 0.000000
0.086370 0.063320 0.000000
0.050000 -0.075000 0.000000
0.050000 -0.050000 0.000000
0.050000 -0.025000 0.000000
0.050000 0.000000 0.000000
0.137635 0.194661 0.000000
0.077739 0.145901 0.000000
0.081004 0.199123 0.000000
0.023687 0.024150 0.000000
0.027647 0.157051 0.000000
0.441778 0.059022 0.000000
0.170074 0.101832 0.000000
0.592047 0.060664 0.000000
0.141971 0.152671 0.000000
0.233526 0.170877 0.000000
0.072150 0.103310 0.000000
0.231772 0.083117 0.000000
0.037504 0.263898 0.000000
0.138818 0.179658 0.000000
0.068142 0.075941 0.000000
0.025302 0.070212 0.000000
0.179097 0.077379 0.000000
0.205122 0.081235 0.000000
0.063187 0.313297 0.000000
0.047459 0.071011 0.000000
0.075000 -0.075000 0.000000
0.075000 -0.050000 0.000000
0.075000 -0.025000 0.000000
0.075000 0.000000 0.000000
0.120769 0.155661 0.000000
0.156141 0.084801 0.000000
0.388068 0.043886 0.000000
0.325829 0.026079 0.000000
0.480399 0.115890 0.000000
0.675419 0.022974 0.000000
0.694424 0.044147 0.000000
0.033806 0.142766 0.000000
0.427853 0.112358 0.000000
0.660469 0.040264 0.000000
0.442653 0.022438 0.000000
0.094595 0.154893 0.000000
0.194758 0.058670 0.000000
0.212197 0.109176 0.000000
0.244706 0.064296 0.000000
0.051258 0.114846 0.000000
0.149051 0.111774 0.000000
0.028090 0.050956 0.000000
0.150002 0.060275 0.000000
0.125585 0.072371 0.000000
0.100000 -0.075000 0.000000
0.100000 -0.050000 0.000000
0.100000 -0.025000 0.000000
0.100000 0.000000 0.000000
0.489759 0.027474 0.000000
0.378918 0.136393 0.000000
0.494141 0.056532 0.000000
0.819942 0.025133 0.000000
0.218077 0.057562 0.000000
0.757002 0.022238 0.000000
0.664027 0.090519 0.000000
0.261530 0.052361 0.000000
0.706421 0.024438 0.000000
0.722917 0.046942 0.000000
0.465140 0.029766 0.000000
0.341375 0.119312 0.000000
0.558335 0.038466 0.000000
0.616947 0.027518 0.000000
0.120501 0.191533 0.000000
0.259249 0.021087 0.000000
0.533719 0.020845 0.000000
0.273998 0.074018 0.000000
0.364656 0.073762 0.000000
0.237449 0.111664 0.000000
0.125000 -0.075000 0.000000
0.125000 -0.050000 0.000000
0.125000 -0.025000 0.000000
0.125000 0.000000 0.000000
0.740513 0.082380 0.000000
0.730147 0.166782 0.000000
0.993490 0.073735 0.000000
0.838487 0.032115 0.000000
0.596126 0.076749 0.000000
0.594081 0.026294 0.000000
0.228885 0.126996 0.000000
0.526448 0.065437 0.000000
0.789977 0.088759 0.000000
0.765402 0.061902 0.000000
0.888416 0.048538 0.000000
0.555618 0.059033 0.000000
0.508709 0.027550 0.000000
0.507814 0.082201 0.000000
0.410879 0.024680 0.000000
0.499271 0.102331 0.000000
0.340576 0.141530 0.000000
0.121682 0.096074 0.000000
0.483926 0.072784 0.000000
0.020099 0.187548 0.000000
0.150000 -0.075000 0.000000
0.150000 -0.050000 0.000000
0.150000 -0.025000 0.000000
0.150000 0.000000 0.000000
0.254197 0.104180 0.000000
0.960937 0.027531 0.000000
0.777304 0.100459 0.000000
0.298045 0.051203 0.000000
0.886902 0.022639 0.000000
0.147389 0.037457 0.000000
0.921376 0.044975 0.000000
0.445208 0.077189 0.000000
0.957179 0.053772 0.000000
0.640792 0.131761 0.000000
0.879247 0.082648 0.000000
0.732749 0.024759 0.000000
0.848216 0.061024 0.000000
0.829557 0.090935 0.000000
0.794112 0.024406 0.000000
0.638460 0.057394 0.000000
0.638865 0.022420 0.000000
0.675004 0.053443 0.000000
0.694963 0.075576 0.000000
0.290807 0.112412 0.000000
0.175000 -0.075000 0.000000
0.175000 -0.050000 0.000000
0.175000 -0.025000 0.000000
0.175000 0.000000 0.000000
0.057037 0.162660 0.000000
0.663075 0.103326 0.000000
0.914270 0.080309 0.000000
0.856425 0.079392 0.000000
0.983673 0.029764 0.000000
0.123112 0.258483 0.000000
0.857861 0.024556 0.000000
0.340135 0.046930 0.000000
0.381309 0.023092 0.000000
0.910392 0.024212 0.000000
0.578370 0.093884 0.000000
0.766585 0.082117 0.000000
0.455915 0.110744 0.000000
0.940538 0.026023 0.000000
0.993620 0.061114 0.000000
0.424004 0.039046 0.000000
1.001012 0.025231 0.000000
0.500896 0.128073 0.000000
0.197785 0.142882 0.000000
0.445865 0.127345 0.000000
0.200000 -0.075000 0.000000
0.200000 -0.050000 0.000000
0.200000 -0.025000 0.000000
0.200000 0.000000 0.000000
0.386870 0.087803 0.000000
0.100870 0.084742 0.000000
0.315755 0.086095 0.000000
0.811079 0.057513 0.000000
0.362304 0.046830 0.000000
0.325110 0.128215 0.000000
0.615670 0.050874 0.000000
0.954970 0.070333 0.000000
0.430738 0.129435 0.000000
0.025974 0.224628 0.000000
0.823339 0.072091 0.000000
0.717901 0.077527 0.000000
0.070235 0.024364 0.000000
0.465868 0.050228 0.000000
0.632330 0.090303 0.000000
0.068399 0.232261 0.000000
0.738916 0.058689 0.000000
0.396495 0.142473 0.000000
0.904180 0.068790 0.000000
0.728123 0.106536 0.000000
0.225000 -0.075000 0.000000
0.225000 -0.050000 0.000000
0.225000 -0.025000 0.000000
0.225000 0.000000 0.000000
0.294631 0.085172 0.000000
0.868896 0.051968 0.000000
0.598216 0.100639 0.000000
0.184672 0.139982 0.000000
0.051679 0.216765 0.000000
0.082638 0.276178 0.000000
0.464690 0.089036 0.000000
0.934716 0.063319 0.000000
0.643200 0.074739 0.000000
0.107332 0.178286 0.000000
0.699136 0.091250 0.000000
0.055750 0.381297 0.000000
0.350564 0.024661 0.000000
0.418816 0.076909 0.000000
0.064234 0.127879 0.000000
0.273615 0.182076 0.000000
0.530811 0.047178 0.000000
0.035704 0.098179 0.000000
0.272426 0.096558 0.000000
0.315373 0.059222 0.000000
0.250000 -0.075000 0.000000
0.250000 -0.050000 0.000000
0.250000 -0.025000 0.000000
0.250000 0.000000 0.000000
0.775271 0.037249 0.000000
0.390556 0.128033 0.000000
0.301360 0.133641 0.000000
0.341310 0.101040 0.000000
0.279919 0.032736 0.000000
0.409118 0.091146 0.000000
0.157810 0.137951 0.000000
0.272382 0.151269 0.000000
0.291154 0.143163 0.000000
0.538031 0.087344 0.000000
0.258868 0.158257 0.000000
0.036707 0.298669 0.000000
0.135755 0.129678 0.000000
0.573477 0.026910 0.000000
0.397970 0.062910 0.000000
0.335510 0.079304 0.000000
0.368653 0.091398 0.000000
0.792491 0.051094 0.000000
0.018676 0.113489 0.000000
0.566456 0.087422 0.000000
0.275000 -0.075000 0.000000
0.275000 -0.050000 0.000000
0.275000 -0.025000 0.000000
0.275000 0.000000 0.000000
0.300000 -0.075000 0.000000
0.300000 -0.050000 0.000000
0.300000 -0.025000 0.000000
0.300000 0.000000 0.000000
0.325000 -0.075000 0.000000
0.325000 -0.050000 0.000000
0.325000 -0.025000 0.000000
0.325000 0.000000 0.000000
0.350000 -0.075000 0.000000
0.350000 -0.050000 0.000000
0.350000 -0.025000 0.000000
0.350000 0.000000 0.000000
0.375000 -0.075000 0.000000
0.375000 -0.050000 0.000000
0.375000 -0.025000 0.000000
0.375000 0.000000 0.000000
0.400000 -0.075000 0.000000
0.400000 -0.050000 0.000000
0.400000 -0.025000 0.000000
0.400000 0.000000 0.000000
0.425000 -0.075000 0.000000
0.425000 -0.050000 0.000000
0.425000 -0.025000 0.000000
0.425000 0.000000 0.000000
0.450000 -0.075000 0.000000
0.450000 -0.050000 0.000000
0.450000 -0.025000 0.000000
0.450000 0.000000 0.000000
0.475000 -0.075000 0.000000
0.475000 -0.050000 0.000000
0.475000 -0.025000 0.000000
0.475000 0.000000 0.000000
0.500000 -0.075000 0.000000
0.500000 -0.050000 0.000000
0.500000 -0.025000 0.000000
0.500000 0.000000 0.000000
0.525000 -0.075000 0.000000
0.525000 -0.050000 0.000000
0.525000 -0.025000 0.000000
0.525000 0.000000 0.000000
0.550000 -0.075000 0.000000
0.550000 -0.050000 0.000000
0.550000 -0.025000 0.000000
0.550000 0.000000 0.000000
0.575000 -0.075000 0.000000
0.575000 -0.050000 0.000000
0.575000 -0.025000 0.000000
0.575000 0.000000 0.000000
0.600000 -0.075000 0.000000
0.600000 -0.050000 0.000000
0.600000 -0.025000 0.000000
0.600000 0.000000 0.000000
0.625000 -0.075000 0.000000
0.625000 -0.050000 0.000000
0.625000 -0.025000 0.000000
0.625000 0.000000 0.000000
0.650000 -0.075000 0.000000
0.650000 -0.050000 0.000000
0.650000 -0.025000 0.000000
0.650000 0.000000 0.000000
0.675000 -0.075000 0.000000
0.675000 -0.050000 0.000000
0.675000 -0.025000 0.000000
0.675000 0.000000 0.000000
0.700000 -0.075000 0.000000
0.700000 -0.050000 0.000000
0.700000 -0.025000 0.000000
0.700000 0.000000 0.000000
0.725000 -0.075000 0.000000
0.725000 -0.050000 0.000000
0.725000 -0.025000 0.000000
0.725000 0.000000 0.000000
0.750000 -0.075000 0.000000
0.750000 -0.050000 0.000000
0.750000 -0.025000 0.000000
0.750000 0.000000 0.000000
0.775000 -0.075000 0.000000
0.775000 -0.050000 0.000000
0.775000 -0.025000 0.000000
0.775000 0.000000 0.000000
0.800000 -0.075000 0.000000
0.800000 -0.050000 0.000000
0.800000 -0.025000 0.000000
0.800000 0.000000 0.000000
0.825000 -0.075000 0.000000
0.825000 -0.050000 0.000000
0.825000 -0.025000 0.000000
0.825000 0.000000 0.000000
0.850000 -0.075000 0.000000
0.850000 -0.050000 0.000000
0.850000 -0.025000 0.000000
0.850000 0.000000 0.000000
0.875000 -0.075000 0.000000
0.875000 -0.050000 0.000000
0.875000 -0.025000 0.000000
0.875000 0.000000 0.000000
0.900000 -0.075000 0.000000
0.900000 -0.050000 0.000000
0.900000 -0.025000 0.000000
0.900000 0.000000 0.000000
0.925000 -0.075000 0.000000
0.925000 -0.050000 0.000000
0.925000 -0.025000 0.000000
0.925000 0.000000 0.000000
0.950000 -0.075000 0.000000
0.950000 -0.050000 0.000000
0.950000 -0.025000 0.000000
0.950000 0.000000 0.000000
0.975000 -0.075000 0.000000
0.975000 -0.050000 0.000000
0.975000 -0.025000 0.000000
0.975000 0.000000 0.000000
1.000000 -0.075000 0.000000
1.000000 -0.050000 0.000000
1.000000 -0.025000 0.000000
1.000000 0.000000 0.000000
1.025000 -0.075000 0.000000
1.025000 -0.050000 0.000000
1.025000 -0.025000 0.000000
1.025000 0.000000 0.000000
1.025000 0.025000 0.000000
1.025000 0.050000 0.000000
1.025000 0.075000 0.000000
1.025000 0.100000 0.000000
1.025000 0.125000 0.000000
1.025000 0.150000 0.000000
1.025000 0.175000 0.000000
1.025000 0.200000 0.000000
1.025000 0.225000 0.000000
1.025000 0.250000 0.000000
1.025000 0.275000 0.000000
1.025000 0.300000 0.000000
1.025000 0.325000 0.000000
1.025000 0.350000 0.000000
1.025000 0.375000 0.000000
1.025000 0.400000 0.000000
1.025000 0.425000 0.000000
1.025000 0.450000 0.000000
1.025000 0.475000 0.000000
1.025000 0.500000 0.000000
1.025000 0.525000 0.000000
1.025000 0.550000 0.000000
1.025000 0.575000 0.000000
1.025000 0.600000 0.000000
1.050000 -0.075000 0.000000
1.050000 -0.050000 0.000000
1.050000 -0.025000 0.000000
1.050000 0.000000 0.000000
1.050000 0.025000 0.000000
1.050000 0.050000 0.000000
1.050000 0.075000 0.000000
1.050000 0.100000 0.000000
1.050000 0.125000 0.000000
1.050000 0.150000 0.000000
1.050000 0.175000 0.000000
1.050000 0.200000 0.000000
1.050000 0.225000 0.000000
1.050000 0.250000 0.000000
1.050000 0.275000 0.000000
1.050000 0.300000 0.000000
1.050000 0.325000 0.000000
1.050000 0.350000 0.000000
1.050000 0.375000 0.000000
1.050000 0.400000 0.000000
1.050000 0.425000 0.000000
1.050000 0.450000 0.000000
1.050000 0.475000 0.000000
1.050000 0.500000 0.000000
1.050000 0.525000 0.000000
1.050000 0.550000 0.000000
1.050000 0.575000 0.000000
1.050000 0.600000 0.000000
1.075000 -0.075000 0.000000
1.075000 -0.050000 0.000000
1.075000 -0.025000 0.000000
1.075000 0.000000 0.000000
1.075000 0.025000 0.000000
1.075000 0.050000 0.000000
1.075000 0.075000 0.000000
1.075000 0.100000 0.000000
1.075000 0.125000 0.000000
1.075000 0.150000 0.000000
1.075000 0.175000 0.000000
1.075000 0.200000 0.000000
1.075000 0.225000 0.000000
1.075000 0.250000 0.000000
1.075000 0.275000 0.000000
1.075000 0.300000 0.000000
1.075000 0.325000 0.000000
1.075000 0.350000 0.000000
1.075000 0.375000 0.000000
1.075000 0.400000 0.000000
1.075000 0.425000 0.000000
1.075000 0.450000 0.000000
1.075000 0.475000 0.000000
1.075000 0.500000 0.000000
1.075000 0.525000 0.000000
1.075000 0.550000 0.000000
1.075000 0.575000 0.000000
1.075000 0.600000 0.000000
1.100000 -0.075000 0.000000
1.100000 -0.050000 0.000000
1.100000 -0.025000 0.000000
1.100000 0.000000 0.000000
1.100000 0.025000 0.000000
1.100000 0.050000 0.000000
1.100000 0.075000 0.000000
1.100000 0.100000 0.000000
1.100000 0.125000 0.000000
1.100000 0.150000 0.000000
1.100000 0.175000 0.000000
1.100000 0.200000 0.000000
1.100000 0.225000 0.000000
1.100000 0.250000 0.000000
1.100000 0.275000 0.000000
1.100000 0.300000 0.000000
1.100000 0.325000 0.000000
1.100000 0.350000 0.000000
1.100000 0.375000 0.000000
1.100000 0.400000 0.000000
1.100000 0.425000 0.000000
1.100000 0.450000 0.000000
1.100000 0.475000 0.000000
1.100000 0.500000 0.000000
1.100000 0.525000 0.000000
1.100000 0.550000 0.000000
1.100000 0.575000 0.000000
1.100000 0.600000 0.000000
</DataArray>
</Points>
<PointData>
<DataArray NumberOfComponents='1' type='Int32' Name='ParticleType' format='ascii'>
3
3
3
3
3
3
3
3
3
3
3
3
3
3
3
3
3
3
3
3
3
3
3
3
3
3
2
2
3
3
3
3
3
3
3
3
3
3
3
3
3
3
3
3
3
3
3
3
3
3
3
3
3
3
2
2
3
3
2
2
2
2
2
2
2
2
2
2
2
2
2
2
2
2
2
2
2
2
2
2
2
2
2
2
3
3
2
2
2
2
2
2
2
2
2
2
2
2
2
2
2
2
2
2
2
2
2
2
2
2
2
2
3
3
2
2
0
0
0
0
0
0
0
0
0
0
0
0
0
0
0
0
0
0
0
0
3
3
2
2
0
0
0
0
0
0
0
0
0
0
0
0
0
0
0
0
0
0
0
0
3
3
2
2
0
0
0
0
0
0
0
0
0
0
0
0
0
0
0
0
0
0
0
0
3
3
2
2
0
0
0
0
0
0
0
0
0
0
0
0
0
0
0
0
0
0
0
0
3
3
2
2
0
0
0
0
0
0
0
0
0
0
0
0
0
0
0
0
0
0
0
0
3
3
2
2
0
0
0
0
0
0
0
0
0
0
0
0
0
0
0
0
0
0
0
0
3
3
2
2
0
0
0
0
0
0
0
0
0
0
0
0
0
0
0
0
0
0
0
0
3
3
2
2
0
0
0
0
0
0
0
0
0
0
0
0
0
0
0
0
0
0
0
0
3
3
2
2
0
0
0
0
0
0
0
0
0
0
0
0
0
0
0
0
0
0
0
0
3
3
2
2
0
0
0
0
0
0
0
0
0
0
0
0
0
0
0
0
0
0
0
0
3
3
2
2
3
3
2
2
3
3
2
2
3
3
2
2
3
3
2
2
3
3
2
2
3
3
2
2
3
3
2
2
3
3
2
2
3
3
2
2
3
3
2
2
3
3
2
2
3
3
2
2
3
3
2
2
3
3
2
2
3
3
2
2
3
3
2
2
3
3
2
2
3
3
2
2
3
3
2
2
3
3
2
2
3
3
2
2
3
3
2
2
3
3
2
2
3
3
2
2
3
3
2
2
3
3
2
2
3
3
2
2
3
3
2
2
3
3
2
2
3
3
2
2
2
2
2
2
2
2
2
2
2
2
2
2
2
2
2
2
2
2
2
2
2
2
2
2
3
3
2
2
2
2
2
2
2
2
2
2
2
2
2
2
2
2
2
2
2
2
2
2
2
2
2
2
3
3
3
3
3
3
3
3
3
3
3
3
3
3
3
3
3
3
3
3
3
3
3
3
3
3
2
2
3
3
3
3
3
3
3
3
3
3
3
3
3
3
3
3
3
3
3
3
3
3
3
3
3
3
2
2
</DataArray>
<DataArray NumberOfComponents='1' type='Float32' Name='Velocity' format='ascii'>
0.000000
0.000000
0.000000
0.000000
0.000000
0.000000
0.000000
0.000000
0.000000
0.000000
0.000000
0.000000
0.000000
0.000000
0.000000
0.000000
0.000000
0.000000
0.000000
0.000000
0.000000
0.000000
0.000000
0.000000
0.000000
0.000000
0.000000
0.000000
0.000000
0.000000
0.000000
0.000000
0.000000
0.000000
0.000000
0.000000
0.000000
0.000000
0.000000
0.000000
0.000000
0.000000
0.000000
0.000000
0.000000
0.000000
0.000000
0.000000
0.000000
0.000000
0.000000
0.000000
0.000000
0.000000
0.000000
0.000000
0.000000
0.000000
0.000000
0.000000
0.000000
0.000000
0.000000
0.000000
0.000000
0.000000
0.000000
0.000000
0.000000
0.000000
0.000000
0.000000
0.000000
0.000000
0.000000
0.000000
0.000000
0.000000
0.000000
0.000000
0.000000
0.000000
0.000000
0.000000
0.000000
0.000000
0.000000
0.000000
0.000000
0.000000
0.000000
0.000000
0.000000
0.000000
0.000000
0.000000
0.000000
0.000000
0.000000
0.000000
0.000000
0.000000
0.000000
0.000000
0.000000
0.000000
0.000000
0.000000
0.000000
0.000000
0.000000
0.000000
0.000000
0.000000
0.000000
0.000000
0.150110
0.643251
0.240598
0.082375
0.338205
0.228820
0.363588
0.185824
0.507878
0.531655
0.397029
0.215744
0.276665
0.456559
0.392126
0.637134
0.127419
0.045473
0.654399
0.276747
0.000000
0.000000
0.000000
0.000000
0.693065
0.241463
1.729911
0.293767
0.167735
0.386245
0.356335
0.304731
0.506342
0.529220
0.416204
0.431226
0.845781
0.493264
0.474499
0.136709
0.396073
0.237308
0.416075
0.371365
0.000000
0.000000
0.000000
0.000000
0.702498
0.315763
0.388626
0.163471
0.893746
0.475750
0.244138
0.278673
0.946559
0.056513
0.119955
0.455875
0.135560
0.587280
0.558774
0.461941
0.449327
0.324871
0.330771
0.082736
0.000000
0.000000
0.000000
0.000000
0.214105
0.997855
0.306125
0.092274
0.303302
0.646719
0.754559
0.347369
0.278136
0.425921
0.643079
0.607636
0.493452
0.279944
1.071082
0.655733
0.161613
0.451361
0.490855
0.739283
0.000000
0.000000
0.000000
0.000000
0.545811
0.804905
0.185737
0.275110
0.707143
0.530852
0.967268
0.690000
0.308260
0.086981
0.582239
0.726071
0.406236
0.741963
0.187278
0.712427
0.895462
0.251517
0.567697
0.180296
0.000000
0.000000
0.000000
0.000000
0.820679
0.101769
0.387286
0.778235
0.034300
0.213465
0.255495
0.702791
0.379404
1.584288
0.724572
0.250082
0.147439
0.420395
0.400555
0.576105
0.243027
0.236022
0.263481
1.070002
0.000000
0.000000
0.000000
0.000000
0.410685
0.663877
0.623434
0.606576
0.214582
0.585423
0.361968
0.526775
0.495992
0.402853
0.769716
0.113572
1.243535
0.111542
0.322004
0.460647
0.008814
0.395206
0.534075
0.750978
0.000000
0.000000
0.000000
0.000000
0.611607
0.297017
0.651958
0.400755
0.507909
0.755850
0.210312
0.197732
0.680047
0.065604
1.058422
0.374830
0.331206
0.209973
0.841131
0.588173
0.470039
0.770231
0.647158
0.476565
0.000000
0.000000
0.000000
0.000000
0.345055
0.395955
0.485646
0.755886
0.748994
0.420833
0.569783
0.117427
0.477800
0.556650
0.396336
0.915342
0.482635
0.485620
0.245565
0.823318
0.482795
0.247398
0.891000
0.702370
0.000000
0.000000
0.000000
0.000000
0.316057
0.933932
0.992390
0.853126
0.401019
0.527243
0.216835
0.513669
0.730795
0.906944
0.988413
0.183854
0.148476
0.268510
0.679765
0.752373
0.539485
0.616977
0.270856
1.013215
0.000000
0.000000
0.000000
0.000000
0.000000
0.000000
0.000000
0.000000
0.000000
0.000000
0.000000
0.000000
0.000000
0.000000
0.000000
0.000000
0.000000
0.000000
0.000000
0.000000
0.000000
0.000000
0.000000
0.000000
0.000000
0.000000
0.000000
0.000000
0.000000
0.000000
0.000000
0.000000
0.000000
0.000000
0.000000
0.000000
0.000000
0.000000
0.000000
0.000000
0.000000
0.000000
0.000000
0.000000
0.000000
0.000000
0.000000
0.000000
0.000000
0.000000
0.000000
0.000000
0.000000
0.000000
0.000000
0.000000
0.000000
0.000000
0.000000
0.000000
0.000000
0.000000
0.000000
0.000000
0.000000
0.000000
0.000000
0.000000
0.000000
0.000000
0.000000
0.000000
0.000000
0.000000
0.000000
0.000000
0.000000
0.000000
0.000000
0.000000
0.000000
0.000000
0.000000
0.000000
0.000000
0.000000
0.000000
0.000000
0.000000
0.000000
0.000000
0.000000
0.000000
0.000000
0.000000
0.000000
0.000000
0.000000
0.000000
0.000000
0.000000
0.000000
0.000000
0.000000
0.000000
0.000000
0.000000
0.000000
0.000000
0.000000
0.000000
0.000000
0.000000
0.000000
0.000000
0.000000
0.000000
0.000000
0.000000
0.000000
0.000000
0.000000
0.000000
0.000000
0.000000
0.000000
0.000000
0.000000
0.000000
0.000000
0.000000
0.000000
0.000000
0.000000
0.000000
0.000000
0.000000
0.000000
0.000000
0.000000
0.000000
0.000000
0.000000
0.000000
0.000000
0.000000
0.000000
0.000000
0.000000
0.000000
0.000000
0.000000
0.000000
0.000000
0.000000
0.000000
0.000000
0.000000
0.000000
0.000000
0.000000
0.000000
0.000000
0.000000
0.000000
0.000000
0.000000
0.000000
0.000000
0.000000
0.000000
0.000000
0.000000
0.000000
0.000000
0.000000
0.000000
0.000000
0.000000
0.000000
0.000000
0.000000
0.000000
0.000000
0.000000
0.000000
0.000000
0.000000
0.000000
0.000000
0.000000
0.000000
0.000000
0.000000
0.000000
0.000000
0.000000
0.000000
0.000000
0.000000
0.000000
0.000000
0.000000
0.000000
0.000000
0.000000
0.000000
0.000000
0.000000
0.000000
0.000000
0.000000
0.000000
0.000000
0.000000
0.000000
0.000000
0.000000
0.000000
0.000000
0.000000
0.000000
0.000000
0.000000
0.000000
0.000000
0.000000
0.000000
0.000000
0.000000
0.000000
0.000000
</DataArray>
<DataArray NumberOfComponents='1' type='Float32' Name='pressure' format='ascii'>
0.000000
0.000000
0.000000
0.000000
0.000000
0.000000
0.000000
0.000000
0.000000
0.000000
0.000000
0.000000
0.000000
0.000000
0.000000
0.000000
0.000000
0.000000
0.000000
0.000000
0.000000
0.000000
0.000000
0.000000
0.000000
0.000000
0.000000
0.000000
0.000000
0.000000
0.000000
0.000000
0.000000
0.000000
0.000000
0.000000
0.000000
0.000000
0.000000
0.000000
0.000000
0.000000
0.000000
0.000000
0.000000
0.000000
0.000000
0.000000
0.000000
0.000000
0.000000
0.000000
0.000000
0.000000
0.000000
0.000000
0.000000
0.000000
3187.512451
2934.453857
2636.862793
611.819702
991.372009
2965.485840
3224.293701
488.799500
2072.572998
1830.997192
0.000000
0.000000
0.000000
0.000000
0.000000
0.000000
0.000000
0.000000
0.000000
0.000000
0.000000
0.000000
0.000000
0.000000
0.000000
0.000000
0.000000
0.000000
3190.469971
3761.860107
3181.107666
0.000000
0.000000
688.443542
1798.667969
0.000000
224.924408
466.458862
0.000000
0.000000
0.000000
0.000000
0.000000
0.000000
0.000000
0.000000
0.000000
0.000000
0.000000
0.000000
0.000000
0.000000
0.000000
0.000000
0.000000
0.000000
3177.241211
4271.465332
1603.015747
1390.277222
2364.283447
2379.978516
1705.067505
1878.832642
1393.374634
2862.084473
865.407959
0.000000
1969.396484
458.067047
1113.588867
0.000000
0.000000
0.000000
997.787415
1796.418823
1797.463989
1081.845337
0.000000
0.000000
1983.441284
2564.833252
0.000000
0.000000
0.000000
2112.316895
0.000000
0.000000
2276.890381
0.000000
0.000000
0.000000
0.000000
191.085266
0.000000
1327.669312
1591.524414
1965.955811
2645.609619
1137.874878
0.000000
132.844131
0.000000
0.000000
1669.932495
925.369934
2829.327881
809.470276
0.000000
1218.675537
0.000000
88.798256
900.537903
0.000000
224.087158
696.648010
468.857544
0.000000
2581.585693
1671.599487
1934.734497
656.573669
0.000000
530.917725
1224.988281
558.366760
0.000000
0.000000
596.382812
0.000000
414.977417
0.000000
0.000000
0.000000
590.926331
0.000000
0.000000
762.163391
253.808640
131.551407
1274.340454
660.969543
0.000000
1330.221191
3633.541748
3006.484863
432.964355
1029.235840
1114.599609
1095.440674
0.000000
0.000000
2943.212158
1548.899292
0.000000
0.000000
0.000000
0.000000
528.428223
0.000000
0.000000
0.000000
0.000000
0.000000
1760.971191
0.000000
0.000000
0.000000
0.000000
0.000000
0.000000
1165.233643
445.397919
1135.138672
0.000000
0.000000
2111.760254
0.000000
0.000000
1442.242188
0.000000
569.162231
1538.323608
1414.490356
2326.509033
0.000000
0.000000
0.000000
0.000000
0.000000
1761.938721
0.000000
1062.621338
0.000000
0.000000
0.000000
0.000000
0.000000
0.000000
0.000000
1454.641846
948.177368
0.000000
0.000000
0.000000
0.000000
729.068420
0.000000
0.000000
0.000000
631.213440
258.764954
0.000000
0.000000
0.000000
549.879456
0.000000
0.000000
1062.405884
0.000000
0.000000
0.000000
0.000000
0.000000
526.217285
340.544312
0.000000
1874.556274
1427.059326
0.000000
132.638351
0.000000
0.000000
0.000000
0.000000
0.000000
0.000000
175.298782
1892.742065
0.000000
0.000000
0.000000
1129.737549
0.000000
0.000000
0.000000
0.000000
0.000000
318.455353
0.000000
1065.384277
741.585388
0.000000
0.000000
0.000000
0.000000
0.000000
0.000000
0.000000
5523.376465
0.000000
0.000000
1769.169434
600.772461
0.000000
0.000000
757.091309
0.000000
952.761658
964.539673
0.000000
0.000000
2484.690674
1429.410034
1038.380493
0.000000
481.061310
0.000000
2195.368408
0.000000
0.000000
0.000000
0.000000
0.000000
0.000000
0.000000
1586.697021
824.272156
467.310089
745.650269
0.000000
0.000000
122.107658
0.000000
0.000000
0.000000
2120.467773
1295.524048
0.000000
0.000000
1733.904663
1451.091064
0.000000
0.000000
978.542053
960.003479
0.000000
0.000000
1313.879761
1286.810425
0.000000
0.000000
1504.446411
1097.627075
0.000000
0.000000
698.581055
351.070068
0.000000
0.000000
389.218170
475.940979
0.000000
0.000000
502.125671
79.356438
0.000000
0.000000
0.000000
0.000000
0.000000
0.000000
0.000000
0.000000
0.000000
0.000000
1420.517822
1977.276978
0.000000
0.000000
667.914734
0.000000
0.000000
0.000000
0.000000
0.000000
0.000000
0.000000
0.000000
143.182526
0.000000
0.000000
578.762451
476.982269
0.000000
0.000000
1238.908203
498.752502
0.000000
0.000000
1729.819458
1137.670166
0.000000
0.000000
1216.794434
705.141724
0.000000
0.000000
1126.674438
1853.042725
0.000000
0.000000
1817.248901
2288.679932
0.000000
0.000000
511.721680
0.000000
0.000000
0.000000
501.164032
0.000000
0.000000
0.000000
435.998077
927.897095
0.000000
0.000000
880.982605
841.803101
0.000000
0.000000
1647.486694
1624.335815
0.000000
0.000000
2067.521484
2862.133789
0.000000
0.000000
25.308678
258.821136
0.000000
0.000000
0.000000
0.000000
0.000000
0.000000
0.000000
0.000000
0.000000
0.000000
39.833740
1286.125610
0.000000
0.000000
366.842529
980.327393
0.000000
0.000000
0.000000
0.000000
0.000000
0.000000
0.000000
0.000000
0.000000
0.000000
0.000000
0.000000
0.000000
0.000000
0.000000
0.000000
0.000000
0.000000
0.000000
0.000000
0.000000
0.000000
0.000000
0.000000
0.000000
0.000000
389.726929
289.516266
222.912109
0.000000
0.000000
0.000000
0.000000
0.000000
0.000000
0.000000
0.000000
0.000000
0.000000
0.000000
0.000000
0.000000
0.000000
0.000000
0.000000
0.000000
0.000000
0.000000
0.000000
0.000000
0.000000
0.000000
0.000000
0.000000
0.000000
0.000000
0.000000
0.000000
0.000000
0.000000
0.000000
0.000000
0.000000
0.000000
0.000000
0.000000
0.000000
0.000000
0.000000
0.000000
0.000000
0.000000
0.000000
0.000000
0.000000
0.000000
0.000000
0.000000
0.000000
0.000000
0.000000
0.000000
0.000000
0.000000
0.000000
0.000000
0.000000
0.000000
0.000000
0.000000
0.000000
0.000000
0.000000
0.000000
0.000000
0.000000
0.000000
0.000000
0.000000
0.000000
0.000000
0.000000
0.000000
0.000000
0.000000
0.000000
0.000000
0.000000
</DataArray>
</PointData>
<Cells>
<DataArray type='Int32' Name='connectivity' format='ascii'>
0
1
2
3
4
5
6
7
8
9
10
11
12
13
14
15
16
17
18
19
20
21
22
23
24
25
26
27
28
29
30
31
32
33
34
35
36
37
38
39
40
41
42
43
44
45
46
47
48
49
50
51
52
53
54
55
56
57
58
59
60
61
62
63
64
65
66
67
68
69
70
71
72
73
74
75
76
77
78
79
80
81
82
83
84
85
86
87
88
89
90
91
92
93
94
95
96
97
98
99
100
101
102
103
104
105
106
107
108
109
110
111
112
113
114
115
116
117
118
119
120
121
122
123
124
125
126
127
128
129
130
131
132
133
134
135
136
137
138
139
140
141
142
143
144
145
146
147
148
149
150
151
152
153
154
155
156
157
158
159
160
161
162
163
164
165
166
167
168
169
170
171
172
173
174
175
176
177
178
179
180
181
182
183
184
185
186
187
188
189
190
191
192
193
194
195
196
197
198
199
200
201
202
203
204
205
206
207
208
209
210
211
212
213
214
215
216
217
218
219
220
221
222
223
224
225
226
227
228
229
230
231
232
233
234
235
236
237
238
239
240
241
242
243
244
245
246
247
248
249
250
251
252
253
254
255
256
257
258
259
260
261
262
263
264
265
266
267
268
269
270
271
272
273
274
275
276
277
278
279
280
281
282
283
284
285
286
287
288
289
290
291
292
293
294
295
296
297
298
299
300
301
302
303
304
305
306
307
308
309
310
311
312
313
314
315
316
317
318
319
320
321
322
323
324