<?xml version='1.0' encoding='UTF-8'?>
<VTKFile xmlns='VTK' byte_order='LittleEndian' version='0.1' type='UnstructuredGrid'>
<UnstructuredGrid>
<Piece NumberOfCells='584' NumberOfPoints='584'>
<Points>
<DataArray NumberOfComponents='3' type='Float32' Name='Position' format='ascii'>
-0.075000 -0.075000 0.000000
-0.075000 -0.050000 0.000000
-0.075000 -0.025000 0.000000
-0.075000 0.000000 0.000000
-0.075000 0.025000 0.000000
-0.075000 0.050000 0.000000
-0.075000 0.075000 0.000000
-0.075000 0.100000 0.000000
-0.075000 0.125000 0.000000
-0.075000 0.150000 0.000000
-0.075000 0.175000 0.000000
-0.075000 0.200000 0.000000
-0.075000 0.225000 0.000000
-0.075000 0.250000 0.000000
-0.075000 0.275000 0.000000
-0.075000 0.300000 0.000000
-0.075000 0.325000 0.000000
-0.075000 0.350000 0.000000
-0.075000 0.375000 0.000000
-0.075000 0.400000 0.000000
-0.075000 0.425000 0.000000
-0.075000 0.450000 0.000000
-0.075000 0.475000 0.000000
-0.075000 0.500000 0.000000
-0.075000 0.525000 0.000000
-0.075000 0.550000 0.000000
-0.075000 0.575000 0.000000
-0.075000 0.600000 0.000000
-0.050000 -0.075000 0.000000
-0.050000 -0.050000 0.000000
-0.050000 -0.025000 0.000000
-0.050000 0.000000 0.000000
-0.050000 0.025000 0.000000
-0.050000 0.050000 0.000000
-0.050000 0.075000 0.000000
-0.050000 0.100000 0.000000
-0.050000 0.125000 0.000000
-0.050000 0.150000 0.000000
-0.050000 0.175000 0.000000
-0.050000 0.200000 0.000000
-0.050000 0.225000 0.000000
-0.050000 0.250000 0.000000
-0.050000 0.275000 0.000000
-0.050000 0.300000 0.000000
-0.050000 0.325000 0.000000
-0.050000 0.350000 0.000000
-0.050000 0.375000 0.000000
-0.050000 0.400000 0.000000
-0.050000 0.425000 0.000000
-0.050000 0.450000 0.000000
-0.050000 0.475000 0.000000
-0.050000 0.500000 0.000000
-0.050000 0.525000 0.000000
-0.050000 0.550000 0.000000
-0.050000 0.575000 0.000000
-0.050000 0.600000 0.000000
-0.025000 -0.075000 0.000000
-0.025000 -0.050000 0.000000
-0.025000 -0.025000 0.000000
-0.025000 0.000000 0.000000
-0.025000 0.025000 0.000000
-0.025000 0.050000 0.000000
-0.025000 0.075000 0.000000
-0.025000 0.100000 0.000000
-0.025000 0.125000 0.000000
-0.025000 0.150000 0.000000
-0.025000 0.175000 0.000000
-0.025000 0.200000 0.000000
-0.025000 0.225000 0.000000
-0.025000 0.250000 0.000000
-0.025000 0.275000 0.000000
-0.025000 0.300000 0.000000
-0.025000 0.325000 0.000000
-0.025000 0.350000 0.000000
-0.025000 0.375000 0.000000
-0.025000 0.400000 0.000000
-0.025000 0.425000 0.000000
-0.025000 0.450000 0.000000
-0.025000 0.475000 0.000000
-0.025000 0.500000 0.000000
-0.025000 0.525000 0.000000
-0.025000 0.550000 0.000000
-0.025000 0.575000 0.000000
-0.025000 0.600000 0.000000
0.000000 -0.075000 0.000000
0.000000 -0.050000 0.000000
0.000000 -0.025000 0.000000
0.000000 0.000000 0.000000
0.000000 0.025000 0.000000
0.000000 0.050000 0.000000
0.000000 0.075000 0.000000
0.000000 0.100000 0.000000
0.000000 0.125000 0.000000
0.000000 0.150000 0.000000
0.000000 0.175000 0.000000
0.000000 0.200000 0.000000
0.000000 0.225000 0.000000
0.000000 0.250000 0.000000
0.000000 0.275000 0.000000
0.000000 0.300000 0.000000
0.000000 0.325000 0.000000
0.000000 0.350000 0.000000
0.000000 0.375000 0.000000
0.000000 0.400000 0.000000
0.000000 0.425000 0.000000
0.000000 0.450000 0.000000
0.000000 0.475000 0.000000
0.000000 0.500000 0.000000
0.000000 0.525000 0.000000
0.000000 0.550000 0.000000
0.000000 0.575000 0.000000
0.000000 0.600000 0.000000
0.025000 -0.075000 0.000000
0.025000 -0.050000 0.000000
0.025000 -0.025000 0.000000
0.025000 0.000000 0.000000
0.249354 0.074168 0.000000
0.155273 0.130508 0.000000
0.246432 0.045016 0.000000
0.229564 0.023592 0.000000
0.269697 0.050168 0.000000
0.169442 0.056482 0.000000
0.343224 0.023450 0.000000
0.265380 0.093197 0.000000
0.211883 0.112171 0.000000
0.158318 0.195948 0.000000
0.256362 0.024336 0.000000
0.149810 0.077085 0.000000
0.200305 0.026166 0.000000
0.171555 0.021837 0.000000
0.141392 0.108326 0.000000
0.092004 0.037656 0.000000
0.027953 0.134035 0.000000
0.108022 0.024900 0.000000
0.045179 0.095823 0.000000
0.226337 0.067323 0.000000
0.050000 -0.075000 0.000000
0.050000 -0.050000 0.000000
0.050000 -0.025000 0.000000
0.050000 0.000000 0.000000
0.115807 0.176690 0.000000
0.129305 0.084420 0.000000
0.086462 0.138877 0.000000
0.042895 0.022715 0.000000
0.023952 0.081919 0.000000
0.433774 0.075733 0.000000
0.225794 0.131251 0.000000
0.596913 0.023769 0.000000
0.098005 0.114420 0.000000
0.261587 0.216112 0.000000
0.153515 0.034940 0.000000
0.262368 0.142284 0.000000
0.035001 0.156905 0.000000
0.276553 0.222442 0.000000
0.190478 0.047987 0.000000
0.056058 0.042421 0.000000
0.243120 0.096895 0.000000
0.288913 0.087481 0.000000
0.091882 0.184069 0.000000
0.115848 0.060424 0.000000
0.075000 -0.075000 0.000000
0.075000 -0.050000 0.000000
0.075000 -0.025000 0.000000
0.075000 0.000000 0.000000
0.172510 0.080366 0.000000
0.179586 0.127317 0.000000
0.412732 0.106766 0.000000
0.373345 0.024488 0.000000
0.417351 0.140532 0.000000
0.551018 0.118928 0.000000
0.536008 0.100527 0.000000
0.075365 0.076985 0.000000
0.317395 0.094954 0.000000
0.566338 0.041159 0.000000
0.446886 0.024129 0.000000
0.108209 0.078214 0.000000
0.259611 0.115812 0.000000
0.258216 0.160260 0.000000
0.315274 0.077556 0.000000
0.076154 0.056029 0.000000
0.166697 0.109145 0.000000
0.046049 0.071494 0.000000
0.191971 0.099079 0.000000
0.218154 0.045100 0.000000
0.100000 -0.075000 0.000000
0.100000 -0.050000 0.000000
0.100000 -0.025000 0.000000
0.100000 0.000000 0.000000
0.493048 0.022116 0.000000
0.344719 0.207822 0.000000
0.475829 0.116901 0.000000
0.782973 0.022035 0.000000
0.285334 0.065630 0.000000
0.712645 0.027917 0.000000
0.546394 0.058435 0.000000
0.295067 0.044255 0.000000
0.664115 0.021204 0.000000
0.664900 0.044666 0.000000
0.470941 0.030854 0.000000
0.324075 0.120227 0.000000
0.488059 0.099131 0.000000
0.628072 0.053909 0.000000
0.068372 0.147762 0.000000
0.286476 0.022574 0.000000
0.511512 0.067170 0.000000
0.320322 0.047823 0.000000
0.350987 0.101493 0.000000
0.137336 0.192690 0.000000
0.125000 -0.075000 0.000000
0.125000 -0.050000 0.000000
0.125000 -0.025000 0.000000
0.125000 0.000000 0.000000
0.690765 0.054936 0.000000
0.586319 0.070223 0.000000
0.979508 0.068392 0.000000
0.839133 0.024012 0.000000
0.512657 0.086284 0.000000
0.615108 0.037112 0.000000
0.079443 0.167961 0.000000
0.457561 0.061485 0.000000
0.786460 0.068085 0.000000
0.724892 0.064078 0.000000
0.823041 0.075882 0.000000
0.481904 0.050342 0.000000
0.511888 0.046105 0.000000
0.366597 0.146613 0.000000
0.424304 0.024994 0.000000
0.382493 0.162652 0.000000
0.215388 0.174407 0.000000
0.196315 0.071081 0.000000
0.393885 0.139023 0.000000
0.064077 0.108782 0.000000
0.150000 -0.075000 0.000000
0.150000 -0.050000 0.000000
0.150000 -0.025000 0.000000
0.150000 0.000000 0.000000
0.177554 0.171811 0.000000
0.953675 0.024718 0.000000
0.646765 0.057966 0.000000
0.340005 0.051652 0.000000
0.891131 0.021392 0.000000
0.217624 0.090834 0.000000
0.904031 0.055269 0.000000
0.437774 0.166799 0.000000
0.958567 0.058103 0.000000
0.468162 0.154386 0.000000
0.931470 0.023154 0.000000
0.693884 0.025745 0.000000
0.862016 0.064694 0.000000
0.802983 0.067501 0.000000
0.755457 0.028275 0.000000
0.566119 0.074417 0.000000
0.632438 0.023309 0.000000
0.586673 0.093700 0.000000
0.615321 0.090144 0.000000
0.304874 0.139467 0.000000
0.175000 -0.075000 0.000000
0.175000 -0.050000 0.000000
0.175000 -0.025000 0.000000
0.175000 0.000000 0.000000
0.118877 0.115963 0.000000
0.522210 0.123297 0.000000
0.873358 0.052085 0.000000
0.765760 0.052745 0.000000
0.986680 0.021466 0.000000
0.138888 0.146134 0.000000
0.868478 0.026836 0.000000
0.393407 0.050734 0.000000
0.412208 0.053537 0.000000
0.911674 0.038429 0.000000
0.479136 0.071161 0.000000
0.745518 0.080833 0.000000
0.374278 0.096004 0.000000
0.944233 0.052741 0.000000
0.981250 0.043357 0.000000
0.438820 0.050683 0.000000
1.004675 0.037948 0.000000
0.457546 0.093283 0.000000
0.109907 0.138007 0.000000
0.366182 0.124216 0.000000
0.200000 -0.075000 0.000000
0.200000 -0.050000 0.000000
0.200000 -0.025000 0.000000
0.200000 0.000000 0.000000
0.342896 0.127019 0.000000
0.132201 0.023382 0.000000
0.297140 0.115900 0.000000
0.815314 0.024485 0.000000
0.411248 0.087304 0.000000
0.340738 0.182516 0.000000
0.590778 0.050190 0.000000
0.973492 0.079793 0.000000
0.343578 0.162875 0.000000
0.082951 0.095258 0.000000
0.793887 0.040300 0.000000
0.626857 0.084544 0.000000
0.072796 0.024699 0.000000
0.439747 0.179118 0.000000
0.522898 0.022787 0.000000
0.201278 0.161714 0.000000
0.712093 0.059803 0.000000
0.372796 0.204700 0.000000
0.849612 0.046938 0.000000
0.666676 0.065558 0.000000
0.225000 -0.075000 0.000000
0.225000 -0.050000 0.000000
0.225000 -0.025000 0.000000
0.225000 0.000000 0.000000
0.365798 0.072719 0.000000
0.823600 0.049559 0.000000
0.519508 0.144227 0.000000
0.290381 0.188851 0.000000
0.046772 0.164235 0.000000
0.086842 0.199919 0.000000
0.442567 0.145190 0.000000
0.902029 0.069576 0.000000
0.535669 0.040347 0.000000
0.021714 0.113437 0.000000
0.548799 0.087388 0.000000
0.212555 0.199061 0.000000
0.399725 0.024819 0.000000
0.438945 0.099348 0.000000
0.134908 0.050630 0.000000
0.203607 0.137414 0.000000
0.505226 0.111584 0.000000
0.021832 0.032746 0.000000
0.280845 0.129792 0.000000
0.363601 0.042459 0.000000
0.250000 -0.075000 0.000000
0.250000 -0.050000 0.000000
0.250000 -0.025000 0.000000
0.250000 0.000000 0.000000
0.737182 0.025997 0.000000
0.372276 0.177482 0.000000
0.274627 0.206844 0.000000
0.344924 0.076343 0.000000
0.316419 0.023336 0.000000
0.308746 0.172364 0.000000
0.125053 0.156794 0.000000
0.330308 0.205534 0.000000
0.291545 0.171964 0.000000
0.450437 0.124381 0.000000
0.238811 0.146672 0.000000
0.053004 0.127612 0.000000
0.177630 0.157201 0.000000
0.565000 0.020543 0.000000
0.393294 0.117905 0.000000
0.388733 0.074827 0.000000
0.321450 0.153832 0.000000
0.749623 0.061372 0.000000
0.028478 0.057309 0.000000
0.471022 0.138018 0.000000
0.275000 -0.075000 0.000000
0.275000 -0.050000 0.000000
0.275000 -0.025000 0.000000
0.275000 0.000000 0.000000
0.300000 -0.075000 0.000000
0.300000 -0.050000 0.000000
0.300000 -0.025000 0.000000
0.300000 0.000000 0.000000
0.325000 -0.075000 0.000000
0.325000 -0.050000 0.000000
0.325000 -0.025000 0.000000
0.325000 0.000000 0.000000
0.350000 -0.075000 0.000000
0.350000 -0.050000 0.000000
0.350000 -0.025000 0.000000
0.350000 0.000000 0.000000
0.375000 -0.075000 0.000000
0.375000 -0.050000 0.000000
0.375000 -0.025000 0.000000
0.375000 0.000000 0.000000
0.400000 -0.075000 0.000000
0.400000 -0.050000 0.000000
0.400000 -0.025000 0.000000
0.400000 0.000000 0.000000
0.425000 -0.075000 0.000000
0.425000 -0.050000 0.000000
0.425000 -0.025000 0.000000
0.425000 0.000000 0.000000
0.450000 -0.075000 0.000000
0.450000 -0.050000 0.000000
0.450000 -0.025000 0.000000
0.450000 0.000000 0.000000
0.475000 -0.075000 0.000000
0.475000 -0.050000 0.000000
0.475000 -0.025000 0.000000
0.475000 0.000000 0.000000
0.500000 -0.075000 0.000000
0.500000 -0.050000 0.000000
0.500000 -0.025000 0.000000
0.500000 0.000000 0.000000
0.525000 -0.075000 0.000000
0.525000 -0.050000 0.000000
0.525000 -0.025000 0.000000
0.525000 0.000000 0.000000
0.550000 -0.075000 0.000000
0.550000 -0.050000 0.000000
0.550000 -0.025000 0.000000
0.550000 0.000000 0.000000
0.575000 -0.075000 0.000000
0.575000 -0.050000 0.000000
0.575000 -0.025000 0.000000
0.575000 0.000000 0.000000
0.600000 -0.075000 0.000000
0.600000 -0.050000 0.000000
0.600000 -0.025000 0.000000
0.600000 0.000000 0.000000
0.625000 -0.075000 0.000000
0.625000 -0.050000 0.000000
0.625000 -0.025000 0.000000
0.625000 0.000000 0.000000
0.650000 -0.075000 0.000000
0.650000 -0.050000 0.000000
0.650000 -0.025000 0.000000
0.650000 0.000000 0.000000
0.675000 -0.075000 0.000000
0.675000 -0.050000 0.000000
0.675000 -0.025000 0.000000
0.675000 0.000000 0.000000
0.700000 -0.075000 0.000000
0.700000 -0.050000 0.000000
0.700000 -0.025000 0.000000
0.700000 0.000000 0.000000
0.725000 -0.075000 0.000000
0.725000 -0.050000 0.000000
0.725000 -0.025000 0.000000
0.725000 0.000000 0.000000
0.750000 -0.075000 0.000000
0.750000 -0.050000 0.000000
0.750000 -0.025000 0.000000
0.750000 0.000000 0.000000
0.775000 -0.075000 0.000000
0.775000 -0.050000 0.000000
0.775000 -0.025000 0.000000
0.775000 0.000000 0.000000
0.800000 -0.075000 0.000000
0.800000 -0.050000 0.000000
0.800000 -0.025000 0.000000
0.800000 0.000000 0.000000
0.825000 -0.075000 0.000000
0.825000 -0.050000 0.000000
0.825000 -0.025000 0.000000
0.825000 0.000000 0.000000
0.850000 -0.075000 0.000000
0.850000 -0.050000 0.000000
0.850000 -0.025000 0.000000
0.850000 0.000000 0.000000
0.875000 -0.075000 0.000000
0.875000 -0.050000 0.000000
0.875000 -0.025000 0.000000
0.875000 0.000000 0.000000
0.900000 -0.075000 0.000000
0.900000 -0.050000 0.000000
0.900000 -0.025000 0.000000
0.900000 0.000000 0.000000
0.925000 -0.075000 0.000000
0.925000 -0.050000 0.000000
0.925000 -0.025000 0.000000
0.925000 0.000000 0.000000
0.950000 -0.075000 0.000000
0.950000 -0.050000 0.000000
0.950000 -0.025000 0.000000
0.950000 0.000000 0.000000
0.975000 -0.075000 0.000000
0.975000 -0.050000 0.000000
0.975000 -0.025000 0.000000
0.975000 0.000000 0.000000
1.000000 -0.075000 0.000000
1.000000 -0.050000 0.000000
1.000000 -0.025000 0.000000
1.000000 0.000000 0.000000
1.025000 -0.075000 0.000000
1.025000 -0.050000 0.000000
1.025000 -0.025000 0.000000
1.025000 0.000000 0.000000
1.025000 0.025000 0.000000
1.025000 0.050000 0.000000
1.025000 0.075000 0.000000
1.025000 0.100000 0.000000
1.025000 0.125000 0.000000
1.025000 0.150000 0.000000
1.025000 0.175000 0.000000
1.025000 0.200000 0.000000
1.025000 0.225000 0.000000
1.025000 0.250000 0.000000
1.025000 0.275000 0.000000
1.025000 0.300000 0.000000
1.025000 0.325000 0.000000
1.025000 0.350000 0.000000
1.025000 0.375000 0.000000
1.025000 0.400000 0.000000
1.025000 0.425000 0.000000
1.025000 0.450000 0.000000
1.025000 0.475000 0.000000
1.025000 0.500000 0.000000
1.025000 0.525000 0.000000
1.025000 0.550000 0.000000
1.025000 0.575000 0.000000
1.025000 0.600000 0.000000
1.050000 -0.075000 0.000000
1.050000 -0.050000 0.000000
1.050000 -0.025000 0.000000
1.050000 0.000000 0.000000
1.050000 0.025000 0.000000
1.050000 0.050000 0.000000
1.050000 0.075000 0.000000
1.050000 0.100000 0.000000
1.050000 0.125000 0.000000
1.050000 0.150000 0.000000
1.050000 0.175000 0.000000
1.050000 0.200000 0.000000
1.050000 0.225000 0.000000
1.050000 0.250000 0.000000
1.050000 0.275000 0.000000
1.050000 0.300000 0.000000
1.050000 0.325000 0.000000
1.050000 0.350000 0.000000
1.050000 0.375000 0.000000
1.050000 0.400000 0.000000
1.050000 0.425000 0.000000
1.050000 0.450000 0.000000
1.050000 0.475000 0.000000
1.050000 0.500000 0.000000
1.050000 0.525000 0.000000
1.050000 0.550000 0.000000
1.050000 0.575000 0.000000
1.050000 0.600000 0.000000
1.075000 -0.075000 0.000000
1.075000 -0.050000 0.000000
1.075000 -0.025000 0.000000
1.075000 0.000000 0.000000
1.075000 0.025000 0.000000
1.075000 0.050000 0.000000
1.075000 0.075000 0.000000
1.075000 0.100000 0.000000
1.075000 0.125000 0.000000
1.075000 0.150000 0.000000
1.075000 0.175000 0.000000
1.075000 0.200000 0.000000
1.075000 0.225000 0.000000
1.075000 0.250000 0.000000
1.075000 0.275000 0.000000
1.075000 0.300000 0.000000
1.075000 0.325000 0.000000
1.075000 0.350000 0.000000
1.075000 0.375000 0.000000
1.075000 0.400000 0.000000
1.075000 0.425000 0.000000
1.075000 0.450000 0.000000
1.075000 0.475000 0.000000
1.075000 0.500000 0.000000
1.075000 0.525000 0.000000
1.075000 0.550000 0.000000
1.075000 0.575000 0.000000
1.075000 0.600000 0.000000
1.100000 -0.075000 0.000000
1.100000 -0.050000 0.000000
1.100000 -0.025000 0.000000
1.100000 0.000000 0.000000
1.100000 0.025000 0.000000
1.100000 0.050000 0.000000
1.100000 0.075000 0.000000
1.100000 0.100000 0.000000
1.100000 0.125000 0.000000
1.100000 0.150000 0.000000
1.100000 0.175000 0.000000
1.100000 0.200000 0.000000
1.100000 0.225000 0.000000
1.100000 0.250000 0.000000
1.100000 0.275000 0.000000
1.100000 0.300000 0.000000
1.100000 0.325000 0.000000
1.100000 0.350000 0.000000
1.100000 0.375000 0.000000
1.100000 0.400000 0.000000
1.100000 0.425000 0.000000
1.100000 0.450000 0.000000
1.100000 0.475000 0.000000
1.100000 0.500000 0.000000
1.100000 0.525000 0.000000
1.100000 0.550000 0.000000
1.100000 0.575000 0.000000
1.100000 0.600000 0.000000
</DataArray>
</Points>
<PointData>
<DataArray NumberOfComponents='1' type='Int32' Name='ParticleType' format='ascii'>
3
3
3
3
3
3
3
3
3
3
3
3
3
3
3
3
3
3
3
3
3
3
3
3
3
3
2
2
3
3
3
3
3
3
3
3
3
3
3
3
3
3
3
3
3
3
3
3
3
3
3
3
3
3
2
2
3
3
2
2
2
2
2
2
2
2
2
2
2
2
2
2
2
2
2
2
2
2
2
2
2
2
2
2
3
3
2
2
2
2
2
2
2
2
2
2
2
2
2
2
2
2
2
2
2
2
2
2
2
2
2
2
3
3
2
2
0
0
0
0
0
0
0
0
0
0
0
0
0
0
0
0
0
0
0
0
3
3
2
2
0
0
0
0
0
0
0
0
0
0
0
0
0
0
0
0
0
0
0
0
3
3
2
2
0
0
0
0
0
0
0
0
0
0
0
0
0
0
0
0
0
0
0
0
3
3
2
2
0
0
0
0
0
0
0
0
0
0
0
0
0
0
0
0
0
0
0
0
3
3
2
2
0
0
0
0
0
0
0
0
0
0
0
0
0
0
0
0
0
0
0
0
3
3
2
2
0
0
0
0
0
0
0
0
0
0
0
0
0
0
0
0
0
0
0
0
3
3
2
2
0
0
0
0
0
0
0
0
0
0
0
0
0
0
0
0
0
0
0
0
3
3
2
2
0
0
0
0
0
0
0
0
0
0
0
0
0
0
0
0
0
0
0
0
3
3
2
2
0
0
0
0
0
0
0
0
0
0
0
0
0
0
0
0
0
0
0
0
3
3
2
2
0
0
0
0
0
0
0
0
0
0
0
0
0
0
0
0
0
0
0
0
3
3
2
2
3
3
2
2
3
3
2
2
3
3
2
2
3
3
2
2
3
3
2
2
3
3
2
2
3
3
2
2
3
3
2
2
3
3
2
2
3
3
2
2
3
3
2
2
3
3
2
2
3
3
2
2
3
3
2
2
3
3
2
2
3
3
2
2
3
3
2
2
3
3
2
2
3
3
2
2
3
3
2
2
3
3
2
2
3
3
2
2
3
3
2
2
3
3
2
2
3
3
2
2
3
3
2
2
3
3
2
2
3
3
2
2
3
3
2
2
3
3
2
2
2
2
2
2
2
2
2
2
2
2
2
2
2
2
2
2
2
2
2
2
2
2
2
2
3
3
2
2
2
2
2
2
2
2
2
2
2
2
2
2
2
2
2
2
2
2
2
2
2
2
2
2
3
3
3
3
3
3
3
3
3
3
3
3
3
3
3
3
3
3
3
3
3
3
3
3
3
3
2
2
3
3
3
3
3
3
3
3
3
3
3
3
3
3
3
3
3
3
3
3
3
3
3
3
3
3
2
2
</DataArray>
<DataArray NumberOfComponents='1' type='Float32' Name='Velocity' format='ascii'>
0.000000
0.000000
0.000000
0.000000
0.000000
0.000000
0.000000
0.000000
0.000000
0.000000
0.000000
0.000000
0.000000
0.000000
0.000000
0.000000
0.000000
0.000000
0.000000
0.000000
0.000000
0.000000
0.000000
0.000000
0.000000
0.000000
0.000000
0.000000
0.000000
0.000000
0.000000
0.000000
0.000000
0.000000
0.000000
0.000000
0.000000
0.000000
0.000000
0.000000
0.000000
0.000000
0.000000
0.000000
0.000000
0.000000
0.000000
0.000000
0.000000
0.000000
0.000000
0.000000
0.000000
0.000000
0.000000
0.000000
0.000000
0.000000
0.000000
0.000000
0.000000
0.000000
0.000000
0.000000
0.000000
0.000000
0.000000
0.000000
0.000000
0.000000
0.000000
0.000000
0.000000
0.000000
0.000000
0.000000
0.000000
0.000000
0.000000
0.000000
0.000000
0.000000
0.000000
0.000000
0.000000
0.000000
0.000000
0.000000
0.000000
0.000000
0.000000
0.000000
0.000000
0.000000
0.000000
0.000000
0.000000
0.000000
0.000000
0.000000
0.000000
0.000000
0.000000
0.000000
0.000000
0.000000
0.000000
0.000000
0.000000
0.000000
0.000000
0.000000
0.000000
0.000000
0.000000
0.000000
0.426605
0.109094
0.595035
0.287755
0.534677
0.496102
0.639865
0.585317
0.494614
0.594710
0.365251
0.521697
0.355844
0.447794
0.412980
0.178891
0.237301
0.506904
0.467176
0.629203
0.000000
0.000000
0.000000
0.000000
0.207990
0.624985
0.373582
0.100046
0.376615
0.222004
0.527507
0.371430
0.475295
0.737641
0.572173
0.277751
0.308697
1.043517
0.665240
0.241090
0.608602
0.700042
0.723011
0.375241
0.000000
0.000000
0.000000
0.000000
0.628093
0.132778
0.585192
0.397946
0.548692
0.295638
0.255348
0.409763
0.679371
0.455979
0.481528
0.275370
0.332861
0.134977
0.471812
0.263048
0.116627
0.234681
0.253155
0.596048
0.000000
0.000000
0.000000
0.000000
0.485227
1.072595
0.190660
0.249251
0.666323
0.184046
0.162476
0.261242
0.151977
0.245402
0.523981
0.476859
0.581967
0.268722
0.396637
0.349124
0.282256
0.590963
0.460733
0.637514
0.000000
0.000000
0.000000
0.000000
0.026453
0.053458
0.199378
0.137220
0.265676
0.280811
0.590998
0.425498
0.077876
0.166715
0.403043
0.235982
0.417336
0.561871
0.460261
0.417530
0.306510
0.598581
0.531081
0.503893
0.000000
0.000000
0.000000
0.000000
0.170085
0.186463
0.299483
0.415312
0.119236
0.350807
0.136029
0.275077
0.203588
0.526223
0.175993
0.198318
0.170500
0.391737
0.322252
0.195457
0.331913
0.336612
0.228039
0.749429
0.000000
0.000000
0.000000
0.000000
0.322728
0.621110
0.320367
0.178359
0.122744
0.610378
0.091263
0.760348
0.725322
0.300808
0.343608
0.094452
0.730982
0.174216
0.098925
0.538423
0.211440
0.474314
0.161040
0.319923
0.000000
0.000000
0.000000
0.000000
0.319263
0.118933
0.300124
0.246847
0.791621
0.451513
0.050186
0.203160
0.219037
0.436164
0.152806
0.107226
0.374333
0.282054
0.190422
0.756825
0.272914
0.435908
0.272198
0.360694
0.000000
0.000000
0.000000
0.000000
0.821043
0.200062
0.370053
0.793610
0.223332
0.594881
0.413721
0.263369
0.357339
0.387845
0.084289
0.076152
0.217124
0.313814
0.539503
0.359013
0.595604
0.332584
0.318981
0.329085
0.000000
0.000000
0.000000
0.000000
0.149760
0.982695
0.765909
0.768608
0.352752
0.710896
0.281841
0.804422
0.756535
0.424506
0.235717
0.358282
0.053727
0.332459
0.361577
0.698563
0.557781
0.210687
0.234430
0.618362
0.000000
0.000000
0.000000
0.000000
0.000000
0.000000
0.000000
0.000000
0.000000
0.000000
0.000000
0.000000
0.000000
0.000000
0.000000
0.000000
0.000000
0.000000
0.000000
0.000000
0.000000
0.000000
0.000000
0.000000
0.000000
0.000000
0.000000
0.000000
0.000000
0.000000
0.000000
0.000000
0.000000
0.000000
0.000000
0.000000
0.000000
0.000000
0.000000
0.000000
0.000000
0.000000
0.000000
0.000000
0.000000
0.000000
0.000000
0.000000
0.000000
0.000000
0.000000
0.000000
0.000000
0.000000
0.000000
0.000000
0.000000
0.000000
0.000000
0.000000
0.000000
0.000000
0.000000
0.000000
0.000000
0.000000
0.000000
0.000000
0.000000
0.000000
0.000000
0.000000
0.000000
0.000000
0.000000
0.000000
0.000000
0.000000
0.000000
0.000000
0.000000
0.000000
0.000000
0.000000
0.000000
0.000000
0.000000
0.000000
0.000000
0.000000
0.000000
0.000000
0.000000
0.000000
0.000000
0.000000
0.000000
0.000000
0.000000
0.000000
0.000000
0.000000
0.000000
0.000000
0.000000
0.000000
0.000000
0.000000
0.000000
0.000000
0.000000
0.000000
0.000000
0.000000
0.000000
0.000000
0.000000
0.000000
0.000000
0.000000
0.000000
0.000000
0.000000
0.000000
0.000000
0.000000
0.000000
0.000000
0.000000
0.000000
0.000000
0.000000
0.000000
0.000000
0.000000
0.000000
0.000000
0.000000
0.000000
0.000000
0.000000
0.000000
0.000000
0.000000
0.000000
0.000000
0.000000
0.000000
0.000000
0.000000
0.000000
0.000000
0.000000
0.000000
0.000000
0.000000
0.000000
0.000000
0.000000
0.000000
0.000000
0.000000
0.000000
0.000000
0.000000
0.000000
0.000000
0.000000
0.000000
0.000000
0.000000
0.000000
0.000000
0.000000
0.000000
0.000000
0.000000
0.000000
0.000000
0.000000
0.000000
0.000000
0.000000
0.000000
0.000000
0.000000
0.000000
0.000000
0.000000
0.000000
0.000000
0.000000
0.000000
0.000000
0.000000
0.000000
0.000000
0.000000
0.000000
0.000000
0.000000
0.000000
0.000000
0.000000
0.000000
0.000000
0.000000
0.000000
0.000000
0.000000
0.000000
0.000000
0.000000
0.000000
0.000000
0.000000
0.000000
0.000000
0.000000
0.000000
0.000000
0.000000
0.000000
0.000000
0.000000
0.000000
0.000000
0.000000
0.000000
0.000000
0.000000
0.000000
</DataArray>
<DataArray NumberOfComponents='1' type='Float32' Name='pressure' format='ascii'>
0.000000
0.000000
0.000000
0.000000
0.000000
0.000000
0.000000
0.000000
0.000000
0.000000
0.000000
0.000000
0.000000
0.000000
0.000000
0.000000
0.000000
0.000000
0.000000
0.000000
0.000000
0.000000
0.000000
0.000000
0.000000
0.000000
0.000000
0.000000
0.000000
0.000000
0.000000
0.000000
0.000000
0.000000
0.000000
0.000000
0.000000
0.000000
0.000000
0.000000
0.000000
0.000000
0.000000
0.000000
0.000000
0.000000
0.000000
0.000000
0.000000
0.000000
0.000000
0.000000
0.000000
0.000000
0.000000
0.000000
0.000000
0.000000
1904.968628
2161.229980
3360.984619
2710.789307
2865.540771
2884.813477
2068.333008
0.000000
0.000000
0.000000
0.000000
0.000000
0.000000
0.000000
0.000000
0.000000
0.000000
0.000000
0.000000
0.000000
0.000000
0.000000
0.000000
0.000000
0.000000
0.000000
0.000000
0.000000
1810.656006
1188.539795
3193.743652
1868.364990
2977.416992
2917.921387
1232.134155
0.000000
0.000000
0.000000
0.000000
0.000000
0.000000
0.000000
0.000000
0.000000
0.000000
0.000000
0.000000
0.000000
0.000000
0.000000
0.000000
0.000000
0.000000
0.000000
0.000000
0.000000
1639.020630
0.000000
1950.134888
0.000000
1255.994995
2285.299805
775.289307
832.265930
127.336601
1266.206543
1191.451904
0.000000
1473.792725
1238.972656
0.000000
774.622131
0.000000
2274.418701
446.739319
1698.257690
1847.745728
1461.559448
0.000000
0.000000
2884.383545
3337.652100
0.000000
1066.703247
961.582703
3542.638184
1858.387817
511.978973
179.823975
52.196911
489.536163
0.000000
2135.620117
730.324768
0.000000
0.000000
2100.694092
2470.290039
0.000000
0.000000
0.000000
1540.330688
0.000000
0.000000
2495.889648
2422.971924
1271.323975
531.733459
0.000000
956.760559
0.000000
0.000000
1337.100464
1905.950928
1131.729126
113.175827
1091.515381
935.013123
40.910374
0.000000
757.999634
1090.534546
1124.975098
2763.257080
209.865646
1580.367065
0.000000
0.000000
2134.453369
2197.647949
483.402710
0.000000
862.915161
675.165344
1795.733032
0.000000
911.463806
1756.384155
0.000000
741.351746
1085.257324
1587.213379
783.971008
116.573395
1306.058228
2117.660156
552.115112
1780.183228
381.831329
0.000000
0.000000
0.000000
2511.070801
2285.767090
0.000000
388.915375
0.000000
0.000000
1003.830505
431.794647
0.000000
1436.316528
0.000000
11.816322
0.000000
1091.206787
820.652283
1612.803711
1792.750244
0.000000
0.000000
412.368805
0.000000
1600.909180
0.000000
0.000000
1855.147217
1309.271606
0.000000
0.000000
289.846619
1498.881836
0.000000
686.561096
33.261848
0.000000
349.552460
0.000000
0.000000
0.000000
0.000000
0.000000
238.519882
1086.660889
0.000000
0.000000
0.000000
0.000000
0.000000
0.000000
2895.613281
2629.353516
1806.308105
0.000000
332.708984
0.000000
1001.822998
0.000000
0.000000
1546.646606
291.774323
0.000000
0.000000
0.000000
668.471313
0.000000
0.000000
753.524658
0.000000
0.000000
1475.435913
1259.674561
0.000000
0.000000
1364.895142
232.783615
155.213654
2261.011230
880.620972
0.000000
1372.654907
0.000000
0.000000
0.000000
0.000000
2043.575195
761.538452
0.000000
2013.806519
0.000000
807.180725
0.000000
0.000000
0.000000
0.000000
0.000000
0.000000
0.000000
2244.235596
2251.347656
1299.887451
0.000000
0.000000
0.000000
0.000000
0.000000
0.000000
0.000000
1177.000488
3147.980469
0.000000
0.000000
772.632446
514.085693
723.655029
1388.016235
443.212189
2948.531494
1365.324585
1329.317139
0.000000
0.000000
2151.675293
2265.963379
390.434998
0.000000
0.000000
472.901459
1016.892090
1387.172729
0.000000
0.000000
492.044922
550.512085
0.000000
222.722549
0.000000
722.862061
322.081970
360.800537
1021.905212
0.000000
2513.673828
0.000000
0.000000
0.000000
2527.968994
1060.003174
0.000000
0.000000
2939.762207
2276.412598
0.000000
0.000000
2882.188232
2303.178467
0.000000
0.000000
2594.974854
2365.523438
0.000000
0.000000
2204.534668
2212.809814
0.000000
0.000000
1940.281128
1442.994263
0.000000
0.000000
1772.809937
2434.896240
0.000000
0.000000
1833.199463
1495.484619
0.000000
0.000000
1452.031128
0.000000
0.000000
0.000000
2665.599609
2718.223633
0.000000
0.000000
2686.828369
2028.113892
0.000000
0.000000
2482.310791
0.000000
0.000000
0.000000
2820.245117
1718.881714
0.000000
0.000000
1728.321777
1097.360840
0.000000
0.000000
1313.370728
475.422058
0.000000
0.000000
1471.994019
0.000000
0.000000
0.000000
1166.510254
836.776062
0.000000
0.000000
0.000000
0.000000
0.000000
0.000000
0.000000
0.000000
0.000000
0.000000
0.000000
0.000000
0.000000
0.000000
1222.034546
1380.988525
0.000000
0.000000
799.783936
608.679260
0.000000
0.000000
738.750977
0.000000
0.000000
0.000000
359.135529
0.000000
0.000000
0.000000
1118.730347
0.000000
0.000000
0.000000
2104.252686
1477.559204
0.000000
0.000000
1790.021362
1500.125122
0.000000
0.000000
1506.307129
662.996460
0.000000
0.000000
1605.110107
520.202698
0.000000
0.000000
1162.293701
0.000000
0.000000
0.000000
429.755920
0.000000
514.885986
0.000000
0.000000
0.000000
0.000000
0.000000
0.000000
0.000000
0.000000
0.000000
0.000000
0.000000
0.000000
0.000000
0.000000
0.000000
0.000000
0.000000
0.000000
0.000000
0.000000
0.000000
0.000000
0.000000
0.000000
0.000000
409.842773
484.788391
1537.714722
1374.201904
0.000000
0.000000
0.000000
0.000000
0.000000
0.000000
0.000000
0.000000
0.000000
0.000000
0.000000
0.000000
0.000000
0.000000
0.000000
0.000000
0.000000
0.000000
0.000000
0.000000
0.000000
0.000000
0.000000
0.000000
0.000000
0.000000
0.000000
0.000000
0.000000
0.000000
0.000000
0.000000
0.000000
0.000000
0.000000
0.000000
0.000000
0.000000
0.000000
0.000000
0.000000
0.000000
0.000000
0.000000
0.000000
0.000000
0.000000
0.000000
0.000000
0.000000
0.000000
0.000000
0.000000
0.000000
0.000000
0.000000
0.000000
0.000000
0.000000
0.000000
0.000000
0.000000
0.000000
0.000000
0.000000
0.000000
0.000000
0.000000
0.000000
0.000000
0.000000
0.000000
0.000000
0.000000
0.000000
0.000000
0.000000
0.000000
</DataArray>
</PointData>
<Cells>
<DataArray type='Int32' Name='connectivity' format='ascii'>
0
1
2
3
4
5
6
7
8
9
10
11
12
13
14
15
16
17
18
19
20
21
22
23
24
25
26
27
28
29
30
31
32
33
34
35
36
37
38
39
40
41
42
43
44
45
46
47
48
49
50
51
52
53
54
55
56
57
58
59
60
61
62
63
64
65
66
67
68
69
70
71
72
73
74
75
76
77
78
79
80
81
82
83
84
85
86
87
88
89
90
91
92
93
94
95
96
97
98
99
100
101
102
103
104
105
106
107
108
109
110
111
112
113
114
115
116
117
118
119
120
121
122
123
124
125
126
127
128
129
130
131
132
133
134
135
136
137
138
139
140
141
142
143
144
145
146
147
148
149
150
151
152
153
154
155
156
157
158
159
160
161
162
163
164
165
166
167
168
169
170
171
172
173
174
175
176
177
178
179
180
181
182
183
184
185
186
187
188
189
190
191
192
193
194
195
196
197
198
199
200
201
202
203
204
205
206
207
208
209
210
211
212
213
214
215
216
217
218
219
220
221
222
223
224
225
226
227
228
229
230
231
232
233
234
235
236
237
238
239
240
241
242
243
244
245
246
247
248
249
250
251
252
253
254
255
256
257
258
259
260
261
262
263
264
265
266
267
268
269
270
271
272
273
274
275
276
277
278
279
280
281
282
283
284
285
286
287
288
289
290
291
292
293
294
295
296
297
298
299
300
301