<?xml version='1.0' encoding='UTF-8'?>
<VTKFile xmlns='VTK' byte_order='LittleEndian' version='0.1' type='UnstructuredGrid'>
<UnstructuredGrid>
<Piece NumberOfCells='584' NumberOfPoints='584'>
<Points>
<DataArray NumberOfComponents='3' type='Float32' Name='Position' format='ascii'>
-0.075000 -0.075000 0.000000
-0.075000 -0.050000 0.000000
-0.075000 -0.025000 0.000000
-0.075000 0.000000 0.000000
-0.075000 0.025000 0.000000
-0.075000 0.050000 0.000000
-0.075000 0.075000 0.000000
-0.075000 0.100000 0.000000
-0.075000 0.125000 0.000000
-0.075000 0.150000 0.000000
-0.075000 0.175000 0.000000
-0.075000 0.200000 0.000000
-0.075000 0.225000 0.000000
-0.075000 0.250000 0.000000
-0.075000 0.275000 0.000000
-0.075000 0.300000 0.000000
-0.075000 0.325000 0.000000
-0.075000 0.350000 0.000000
-0.075000 0.375000 0.000000
-0.075000 0.400000 0.000000
-0.075000 0.425000 0.000000
-0.075000 0.450000 0.000000
-0.075000 0.475000 0.000000
-0.075000 0.500000 0.000000
-0.075000 0.525000 0.000000
-0.075000 0.550000 0.000000
-0.075000 0.575000 0.000000
-0.075000 0.600000 0.000000
-0.050000 -0.075000 0.000000
-0.050000 -0.050000 0.000000
-0.050000 -0.025000 0.000000
-0.050000 0.000000 0.000000
-0.050000 0.025000 0.000000
-0.050000 0.050000 0.000000
-0.050000 0.075000 0.000000
-0.050000 0.100000 0.000000
-0.050000 0.125000 0.000000
-0.050000 0.150000 0.000000
-0.050000 0.175000 0.000000
-0.050000 0.200000 0.000000
-0.050000 0.225000 0.000000
-0.050000 0.250000 0.000000
-0.050000 0.275000 0.000000
-0.050000 0.300000 0.000000
-0.050000 0.325000 0.000000
-0.050000 0.350000 0.000000
-0.050000 0.375000 0.000000
-0.050000 0.400000 0.000000
-0.050000 0.425000 0.000000
-0.050000 0.450000 0.000000
-0.050000 0.475000 0.000000
-0.050000 0.500000 0.000000
-0.050000 0.525000 0.000000
-0.050000 0.550000 0.000000
-0.050000 0.575000 0.000000
-0.050000 0.600000 0.000000
-0.025000 -0.075000 0.000000
-0.025000 -0.050000 0.000000
-0.025000 -0.025000 0.000000
-0.025000 0.000000 0.000000
-0.025000 0.025000 0.000000
-0.025000 0.050000 0.000000
-0.025000 0.075000 0.000000
-0.025000 0.100000 0.000000
-0.025000 0.125000 0.000000
-0.025000 0.150000 0.000000
-0.025000 0.175000 0.000000
-0.025000 0.200000 0.000000
-0.025000 0.225000 0.000000
-0.025000 0.250000 0.000000
-0.025000 0.275000 0.000000
-0.025000 0.300000 0.000000
-0.025000 0.325000 0.000000
-0.025000 0.350000 0.000000
-0.025000 0.375000 0.000000
-0.025000 0.400000 0.000000
-0.025000 0.425000 0.000000
-0.025000 0.450000 0.000000
-0.025000 0.475000 0.000000
-0.025000 0.500000 0.000000
-0.025000 0.525000 0.000000
-0.025000 0.550000 0.000000
-0.025000 0.575000 0.000000
-0.025000 0.600000 0.000000
0.000000 -0.075000 0.000000
0.000000 -0.050000 0.000000
0.000000 -0.025000 0.000000
0.000000 0.000000 0.000000
0.000000 0.025000 0.000000
0.000000 0.050000 0.000000
0.000000 0.075000 0.000000
0.000000 0.100000 0.000000
0.000000 0.125000 0.000000
0.000000 0.150000 0.000000
0.000000 0.175000 0.000000
0.000000 0.200000 0.000000
0.000000 0.225000 0.000000
0.000000 0.250000 0.000000
0.000000 0.275000 0.000000
0.000000 0.300000 0.000000
0.000000 0.325000 0.000000
0.000000 0.350000 0.000000
0.000000 0.375000 0.000000
0.000000 0.400000 0.000000
0.000000 0.425000 0.000000
0.000000 0.450000 0.000000
0.000000 0.475000 0.000000
0.000000 0.500000 0.000000
0.000000 0.525000 0.000000
0.000000 0.550000 0.000000
0.000000 0.575000 0.000000
0.000000 0.600000 0.000000
0.025000 -0.075000 0.000000
0.025000 -0.050000 0.000000
0.025000 -0.025000 0.000000
0.025000 0.000000 0.000000
0.084499 0.021623 0.000000
0.042985 0.020276 0.000000
0.051719 0.042017 0.000000
0.021406 0.033919 0.000000
0.082748 0.042934 0.000000
0.027939 0.057576 0.000000
0.091240 0.071030 0.000000
0.067721 0.057588 0.000000
0.060407 0.084584 0.000000
0.037786 0.073985 0.000000
0.071757 0.109188 0.000000
0.042608 0.099971 0.000000
0.020060 0.101162 0.000000
0.027515 0.133741 0.000000
0.022573 0.156384 0.000000
0.026956 0.185944 0.000000
0.048966 0.200974 0.000000
0.024428 0.207120 0.000000
0.035451 0.241143 0.000000
0.022239 0.244594 0.000000
0.050000 -0.075000 0.000000
0.050000 -0.050000 0.000000
0.050000 -0.025000 0.000000
0.050000 0.000000 0.000000
0.127154 0.022265 0.000000
0.105931 0.034329 0.000000
0.129282 0.043996 0.000000
0.194601 0.069480 0.000000
0.129992 0.065137 0.000000
0.140540 0.084229 0.000000
0.108849 0.081067 0.000000
0.155338 0.105546 0.000000
0.090167 0.093766 0.000000
0.116357 0.106890 0.000000
0.085876 0.128118 0.000000
0.113282 0.128509 0.000000
0.046927 0.124461 0.000000
0.084989 0.147488 0.000000
0.060692 0.142734 0.000000
0.071827 0.168288 0.000000
0.043463 0.165549 0.000000
0.068715 0.186416 0.000000
0.048956 0.223231 0.000000
0.068085 0.239707 0.000000
0.075000 -0.075000 0.000000
0.075000 -0.050000 0.000000
0.075000 -0.025000 0.000000
0.075000 0.000000 0.000000
0.166659 0.024034 0.000000
0.164627 0.065555 0.000000
0.197218 0.021464 0.000000
0.154409 0.043876 0.000000
0.206477 0.049965 0.000000
0.256215 0.060612 0.000000
0.264034 0.086163 0.000000
0.166074 0.086495 0.000000
0.220245 0.070576 0.000000
0.165744 0.127348 0.000000
0.190103 0.118746 0.000000
0.135077 0.120006 0.000000
0.136068 0.147453 0.000000
0.115125 0.156199 0.000000
0.099883 0.188978 0.000000
0.084327 0.205862 0.000000
0.116925 0.201710 0.000000
0.096898 0.226967 0.000000
0.127466 0.235032 0.000000
0.082188 0.235321 0.000000
0.100000 -0.075000 0.000000
0.100000 -0.050000 0.000000
0.100000 -0.025000 0.000000
0.100000 0.000000 0.000000
0.248967 0.021223 0.000000
0.231849 0.029660 0.000000
0.231525 0.051003 0.000000
0.301178 0.060995 0.000000
0.182792 0.038753 0.000000
0.318893 0.037560 0.000000
0.280919 0.049545 0.000000
0.284887 0.075486 0.000000
0.240491 0.083722 0.000000
0.272715 0.122639 0.000000
0.194035 0.093617 0.000000
0.235442 0.107123 0.000000
0.209762 0.105766 0.000000
0.207362 0.139685 0.000000
0.161714 0.149666 0.000000
0.118527 0.174067 0.000000
0.167743 0.168553 0.000000
0.147647 0.179588 0.000000
0.154750 0.218429 0.000000
0.137207 0.209446 0.000000
0.125000 -0.075000 0.000000
0.125000 -0.050000 0.000000
0.125000 -0.025000 0.000000
0.125000 0.000000 0.000000
0.366445 0.024392 0.000000
0.297673 0.022940 0.000000
0.435297 0.024084 0.000000
0.406808 0.022437 0.000000
0.431546 0.041971 0.000000
0.277657 0.028918 0.000000
0.338203 0.022205 0.000000
0.349227 0.045858 0.000000
0.323484 0.082025 0.000000
0.281156 0.101417 0.000000
0.313838 0.100340 0.000000
0.305234 0.116565 0.000000
0.243378 0.123233 0.000000
0.212334 0.162269 0.000000
0.201478 0.191379 0.000000
0.187897 0.153259 0.000000
0.250278 0.177908 0.000000
0.183519 0.193674 0.000000
0.207765 0.207286 0.000000
0.163045 0.205835 0.000000
0.150000 -0.075000 0.000000
0.150000 -0.050000 0.000000
0.150000 -0.025000 0.000000
0.150000 0.000000 0.000000
0.526032 0.022293 0.000000
0.471096 0.022453 0.000000
0.514386 0.038885 0.000000
0.461346 0.041368 0.000000
0.494720 0.029367 0.000000
0.554409 0.042073 0.000000
0.397957 0.059165 0.000000
0.472688 0.060211 0.000000
0.386113 0.032862 0.000000
0.426512 0.064657 0.000000
0.373687 0.055630 0.000000
0.328762 0.056863 0.000000
0.359343 0.079017 0.000000
0.344831 0.118961 0.000000
0.303741 0.136063 0.000000
0.262592 0.139470 0.000000
0.227893 0.145191 0.000000
0.255965 0.161351 0.000000
0.250346 0.196973 0.000000
0.227577 0.182218 0.000000
0.175000 -0.075000 0.000000
0.175000 -0.050000 0.000000
0.175000 -0.025000 0.000000
0.175000 0.000000 0.000000
0.673945 0.040028 0.000000
0.585598 0.023950 0.000000
0.644610 0.040363 0.000000
0.658561 0.021800 0.000000
0.629869 0.023035 0.000000
0.556687 0.023746 0.000000
0.603082 0.034877 0.000000
0.599674 0.052207 0.000000
0.521486 0.066221 0.000000
0.569174 0.054301 0.000000
0.446272 0.074444 0.000000
0.470663 0.085714 0.000000
0.387971 0.076375 0.000000
0.396431 0.105718 0.000000
0.344768 0.090533 0.000000
0.371717 0.103312 0.000000
0.347129 0.133923 0.000000
0.311422 0.154343 0.000000
0.300843 0.168388 0.000000
0.283389 0.162624 0.000000
0.200000 -0.075000 0.000000
0.200000 -0.050000 0.000000
0.200000 -0.025000 0.000000
0.200000 0.000000 0.000000
0.910244 0.046682 0.000000
0.762858 0.024838 0.000000
0.858213 0.047369 0.000000
0.707814 0.025173 0.000000
0.833351 0.024541 0.000000
0.790573 0.021011 0.000000
0.731023 0.022476 0.000000
0.694843 0.039530 0.000000
0.633625 0.063515 0.000000
0.629416 0.090848 0.000000
0.588982 0.072908 0.000000
0.493819 0.055853 0.000000
0.534890 0.078365 0.000000
0.502644 0.082559 0.000000
0.414711 0.083285 0.000000
0.466159 0.110188 0.000000
0.423306 0.112170 0.000000
0.382229 0.122492 0.000000
0.388187 0.139631 0.000000
0.341062 0.172443 0.000000
0.225000 -0.075000 0.000000
0.225000 -0.050000 0.000000
0.225000 -0.025000 0.000000
0.225000 0.000000 0.000000
0.924992 0.023103 0.000000
0.955605 0.052967 0.000000
0.892228 0.021380 0.000000
0.836800 0.071991 0.000000
0.857342 0.023777 0.000000
0.855993 0.078717 0.000000
0.883618 0.045678 0.000000
0.802321 0.041766 0.000000
0.767547 0.045082 0.000000
0.787433 0.051975 0.000000
0.731091 0.047894 0.000000
0.697666 0.068785 0.000000
0.692196 0.080019 0.000000
0.649664 0.073990 0.000000
0.585903 0.091641 0.000000
0.534173 0.102113 0.000000
0.520316 0.100580 0.000000
0.481560 0.119384 0.000000
0.417877 0.129264 0.000000
0.345723 0.153141 0.000000
0.250000 -0.075000 0.000000
0.250000 -0.050000 0.000000
0.250000 -0.025000 0.000000
0.250000 0.000000 0.000000
0.995168 0.068073 0.000000
1.001282 0.042084 0.000000
0.959941 0.025171 0.000000
0.985133 0.025716 0.000000
0.973664 0.048013 0.000000
0.940058 0.036906 0.000000
0.907055 0.062262 0.000000
0.885766 0.064658 0.000000
0.846963 0.091109 0.000000
0.833190 0.042595 0.000000
0.818715 0.083631 0.000000
0.801472 0.077881 0.000000
0.768061 0.070967 0.000000
0.755014 0.089454 0.000000
0.728690 0.061028 0.000000
0.663716 0.065026 0.000000
0.613299 0.083869 0.000000
0.561284 0.079476 0.000000
0.489450 0.106288 0.000000
0.443019 0.095464 0.000000
0.275000 -0.075000 0.000000
0.275000 -0.050000 0.000000
0.275000 -0.025000 0.000000
0.275000 0.000000 0.000000
0.300000 -0.075000 0.000000
0.300000 -0.050000 0.000000
0.300000 -0.025000 0.000000
0.300000 0.000000 0.000000
0.325000 -0.075000 0.000000
0.325000 -0.050000 0.000000
0.325000 -0.025000 0.000000
0.325000 0.000000 0.000000
0.350000 -0.075000 0.000000
0.350000 -0.050000 0.000000
0.350000 -0.025000 0.000000
0.350000 0.000000 0.000000
0.375000 -0.075000 0.000000
0.375000 -0.050000 0.000000
0.375000 -0.025000 0.000000
0.375000 0.000000 0.000000
0.400000 -0.075000 0.000000
0.400000 -0.050000 0.000000
0.400000 -0.025000 0.000000
0.400000 0.000000 0.000000
0.425000 -0.075000 0.000000
0.425000 -0.050000 0.000000
0.425000 -0.025000 0.000000
0.425000 0.000000 0.000000
0.450000 -0.075000 0.000000
0.450000 -0.050000 0.000000
0.450000 -0.025000 0.000000
0.450000 0.000000 0.000000
0.475000 -0.075000 0.000000
0.475000 -0.050000 0.000000
0.475000 -0.025000 0.000000
0.475000 0.000000 0.000000
0.500000 -0.075000 0.000000
0.500000 -0.050000 0.000000
0.500000 -0.025000 0.000000
0.500000 0.000000 0.000000
0.525000 -0.075000 0.000000
0.525000 -0.050000 0.000000
0.525000 -0.025000 0.000000
0.525000 0.000000 0.000000
0.550000 -0.075000 0.000000
0.550000 -0.050000 0.000000
0.550000 -0.025000 0.000000
0.550000 0.000000 0.000000
0.575000 -0.075000 0.000000
0.575000 -0.050000 0.000000
0.575000 -0.025000 0.000000
0.575000 0.000000 0.000000
0.600000 -0.075000 0.000000
0.600000 -0.050000 0.000000
0.600000 -0.025000 0.000000
0.600000 0.000000 0.000000
0.625000 -0.075000 0.000000
0.625000 -0.050000 0.000000
0.625000 -0.025000 0.000000
0.625000 0.000000 0.000000
0.650000 -0.075000 0.000000
0.650000 -0.050000 0.000000
0.650000 -0.025000 0.000000
0.650000 0.000000 0.000000
0.675000 -0.075000 0.000000
0.675000 -0.050000 0.000000
0.675000 -0.025000 0.000000
0.675000 0.000000 0.000000
0.700000 -0.075000 0.000000
0.700000 -0.050000 0.000000
0.700000 -0.025000 0.000000
0.700000 0.000000 0.000000
0.725000 -0.075000 0.000000
0.725000 -0.050000 0.000000
0.725000 -0.025000 0.000000
0.725000 0.000000 0.000000
0.750000 -0.075000 0.000000
0.750000 -0.050000 0.000000
0.750000 -0.025000 0.000000
0.750000 0.000000 0.000000
0.775000 -0.075000 0.000000
0.775000 -0.050000 0.000000
0.775000 -0.025000 0.000000
0.775000 0.000000 0.000000
0.800000 -0.075000 0.000000
0.800000 -0.050000 0.000000
0.800000 -0.025000 0.000000
0.800000 0.000000 0.000000
0.825000 -0.075000 0.000000
0.825000 -0.050000 0.000000
0.825000 -0.025000 0.000000
0.825000 0.000000 0.000000
0.850000 -0.075000 0.000000
0.850000 -0.050000 0.000000
0.850000 -0.025000 0.000000
0.850000 0.000000 0.000000
0.875000 -0.075000 0.000000
0.875000 -0.050000 0.000000
0.875000 -0.025000 0.000000
0.875000 0.000000 0.000000
0.900000 -0.075000 0.000000
0.900000 -0.050000 0.000000
0.900000 -0.025000 0.000000
0.900000 0.000000 0.000000
0.925000 -0.075000 0.000000
0.925000 -0.050000 0.000000
0.925000 -0.025000 0.000000
0.925000 0.000000 0.000000
0.950000 -0.075000 0.000000
0.950000 -0.050000 0.000000
0.950000 -0.025000 0.000000
0.950000 0.000000 0.000000
0.975000 -0.075000 0.000000
0.975000 -0.050000 0.000000
0.975000 -0.025000 0.000000
0.975000 0.000000 0.000000
1.000000 -0.075000 0.000000
1.000000 -0.050000 0.000000
1.000000 -0.025000 0.000000
1.000000 0.000000 0.000000
1.025000 -0.075000 0.000000
1.025000 -0.050000 0.000000
1.025000 -0.025000 0.000000
1.025000 0.000000 0.000000
1.025000 0.025000 0.000000
1.025000 0.050000 0.000000
1.025000 0.075000 0.000000
1.025000 0.100000 0.000000
1.025000 0.125000 0.000000
1.025000 0.150000 0.000000
1.025000 0.175000 0.000000
1.025000 0.200000 0.000000
1.025000 0.225000 0.000000
1.025000 0.250000 0.000000
1.025000 0.275000 0.000000
1.025000 0.300000 0.000000
1.025000 0.325000 0.000000
1.025000 0.350000 0.000000
1.025000 0.375000 0.000000
1.025000 0.400000 0.000000
1.025000 0.425000 0.000000
1.025000 0.450000 0.000000
1.025000 0.475000 0.000000
1.025000 0.500000 0.000000
1.025000 0.525000 0.000000
1.025000 0.550000 0.000000
1.025000 0.575000 0.000000
1.025000 0.600000 0.000000
1.050000 -0.075000 0.000000
1.050000 -0.050000 0.000000
1.050000 -0.025000 0.000000
1.050000 0.000000 0.000000
1.050000 0.025000 0.000000
1.050000 0.050000 0.000000
1.050000 0.075000 0.000000
1.050000 0.100000 0.000000
1.050000 0.125000 0.000000
1.050000 0.150000 0.000000
1.050000 0.175000 0.000000
1.050000 0.200000 0.000000
1.050000 0.225000 0.000000
1.050000 0.250000 0.000000
1.050000 0.275000 0.000000
1.050000 0.300000 0.000000
1.050000 0.325000 0.000000
1.050000 0.350000 0.000000
1.050000 0.375000 0.000000
1.050000 0.400000 0.000000
1.050000 0.425000 0.000000
1.050000 0.450000 0.000000
1.050000 0.475000 0.000000
1.050000 0.500000 0.000000
1.050000 0.525000 0.000000
1.050000 0.550000 0.000000
1.050000 0.575000 0.000000
1.050000 0.600000 0.000000
1.075000 -0.075000 0.000000
1.075000 -0.050000 0.000000
1.075000 -0.025000 0.000000
1.075000 0.000000 0.000000
1.075000 0.025000 0.000000
1.075000 0.050000 0.000000
1.075000 0.075000 0.000000
1.075000 0.100000 0.000000
1.075000 0.125000 0.000000
1.075000 0.150000 0.000000
1.075000 0.175000 0.000000
1.075000 0.200000 0.000000
1.075000 0.225000 0.000000
1.075000 0.250000 0.000000
1.075000 0.275000 0.000000
1.075000 0.300000 0.000000
1.075000 0.325000 0.000000
1.075000 0.350000 0.000000
1.075000 0.375000 0.000000
1.075000 0.400000 0.000000
1.075000 0.425000 0.000000
1.075000 0.450000 0.000000
1.075000 0.475000 0.000000
1.075000 0.500000 0.000000
1.075000 0.525000 0.000000
1.075000 0.550000 0.000000
1.075000 0.575000 0.000000
1.075000 0.600000 0.000000
1.100000 -0.075000 0.000000
1.100000 -0.050000 0.000000
1.100000 -0.025000 0.000000
1.100000 0.000000 0.000000
1.100000 0.025000 0.000000
1.100000 0.050000 0.000000
1.100000 0.075000 0.000000
1.100000 0.100000 0.000000
1.100000 0.125000 0.000000
1.100000 0.150000 0.000000
1.100000 0.175000 0.000000
1.100000 0.200000 0.000000
1.100000 0.225000 0.000000
1.100000 0.250000 0.000000
1.100000 0.275000 0.000000
1.100000 0.300000 0.000000
1.100000 0.325000 0.000000
1.100000 0.350000 0.000000
1.100000 0.375000 0.000000
1.100000 0.400000 0.000000
1.100000 0.425000 0.000000
1.100000 0.450000 0.000000
1.100000 0.475000 0.000000
1.100000 0.500000 0.000000
1.100000 0.525000 0.000000
1.100000 0.550000 0.000000
1.100000 0.575000 0.000000
1.100000 0.600000 0.000000
</DataArray>
</Points>
<PointData>
<DataArray NumberOfComponents='1' type='Int32' Name='ParticleType' format='ascii'>
3
3
3
3
3
3
3
3
3
3
3
3
3
3
3
3
3
3
3
3
3
3
3
3
3
3
2
2
3
3
3
3
3
3
3
3
3
3
3
3
3
3
3
3
3
3
3
3
3
3
3
3
3
3
2
2
3
3
2
2
2
2
2
2
2
2
2
2
2
2
2
2
2
2
2
2
2
2
2
2
2
2
2
2
3
3
2
2
2
2
2
2
2
2
2
2
2
2
2
2
2
2
2
2
2
2
2
2
2
2
2
2
3
3
2
2
0
0
0
0
0
0
0
0
0
0
0
0
0
0
0
0
0
0
0
0
3
3
2
2
0
0
0
0
0
0
0
0
0
0
0
0
0
0
0
0
0
0
0
0
3
3
2
2
0
0
0
0
0
0
0
0
0
0
0
0
0
0
0
0
0
0
0
0
3
3
2
2
0
0
0
0
0
0
0
0
0
0
0
0
0
0
0
0
0
0
0
0
3
3
2
2
0
0
0
0
0
0
0
0
0
0
0
0
0
0
0
0
0
0
0
0
3
3
2
2
0
0
0
0
0
0
0
0
0
0
0
0
0
0
0
0
0
0
0
0
3
3
2
2
0
0
0
0
0
0
0
0
0
0
0
0
0
0
0
0
0
0
0
0
3
3
2
2
0
0
0
0
0
0
0
0
0
0
0
0
0
0
0
0
0
0
0
0
3
3
2
2
0
0
0
0
0
0
0
0
0
0
0
0
0
0
0
0
0
0
0
0
3
3
2
2
0
0
0
0
0
0
0
0
0
0
0
0
0
0
0
0
0
0
0
0
3
3
2
2
3
3
2
2
3
3
2
2
3
3
2
2
3
3
2
2
3
3
2
2
3
3
2
2
3
3
2
2
3
3
2
2
3
3
2
2
3
3
2
2
3
3
2
2
3
3
2
2
3
3
2
2
3
3
2
2
3
3
2
2
3
3
2
2
3
3
2
2
3
3
2
2
3
3
2
2
3
3
2
2
3
3
2
2
3
3
2
2
3
3
2
2
3
3
2
2
3
3
2
2
3
3
2
2
3
3
2
2
3
3
2
2
3
3
2
2
3
3
2
2
2
2
2
2
2
2
2
2
2
2
2
2
2
2
2
2
2
2
2
2
2
2
2
2
3
3
2
2
2
2
2
2
2
2
2
2
2
2
2
2
2
2
2
2
2
2
2
2
2
2
2
2
3
3
3
3
3
3
3
3
3
3
3
3
3
3
3
3
3
3
3
3
3
3
3
3
3
3
2
2
3
3
3
3
3
3
3
3
3
3
3
3
3
3
3
3
3
3
3
3
3
3
3
3
3
3
2
2
</DataArray>
<DataArray NumberOfComponents='1' type='Float32' Name='Velocity' format='ascii'>
0.000000
0.000000
0.000000
0.000000
0.000000
0.000000
0.000000
0.000000
0.000000
0.000000
0.000000
0.000000
0.000000
0.000000
0.000000
0.000000
0.000000
0.000000
0.000000
0.000000
0.000000
0.000000
0.000000
0.000000
0.000000
0.000000
0.000000
0.000000
0.000000
0.000000
0.000000
0.000000
0.000000
0.000000
0.000000
0.000000
0.000000
0.000000
0.000000
0.000000
0.000000
0.000000
0.000000
0.000000
0.000000
0.000000
0.000000
0.000000
0.000000
0.000000
0.000000
0.000000
0.000000
0.000000
0.000000
0.000000
0.000000
0.000000
0.000000
0.000000
0.000000
0.000000
0.000000
0.000000
0.000000
0.000000
0.000000
0.000000
0.000000
0.000000
0.000000
0.000000
0.000000
0.000000
0.000000
0.000000
0.000000
0.000000
0.000000
0.000000
0.000000
0.000000
0.000000
0.000000
0.000000
0.000000
0.000000
0.000000
0.000000
0.000000
0.000000
0.000000
0.000000
0.000000
0.000000
0.000000
0.000000
0.000000
0.000000
0.000000
0.000000
0.000000
0.000000
0.000000
0.000000
0.000000
0.000000
0.000000
0.000000
0.000000
0.000000
0.000000
0.000000
0.000000
0.000000
0.000000
0.398809
0.275576
0.321522
0.575080
0.572475
0.358241
0.511647
0.351111
0.058473
0.403817
0.525240
0.296842
0.922920
0.783405
0.572294
0.506913
0.702163
0.868449
0.694224
0.937726
0.000000
0.000000
0.000000
0.000000
0.255652
0.399489
0.601784
0.463207
0.746910
0.669426
0.563648
0.866160
0.435282
0.322292
0.624005
0.904776
0.436512
0.631813
0.649144
0.637375
0.899682
0.710114
0.588839
0.853400
0.000000
0.000000
0.000000
0.000000
0.447122
0.721596
0.409226
0.285947
0.793607
1.492758
0.880771
0.356750
1.140618
0.799279
0.714799
0.645680
0.343038
0.603954
0.538550
0.411859
0.659139
0.509381
1.049012
0.748505
0.000000
0.000000
0.000000
0.000000
0.267772
0.263342
0.834423
1.065424
0.404671
1.139743
1.308943
1.037776
1.052731
0.927629
0.869417
0.784873
0.830023
1.001438
0.907131
0.316631
1.001608
0.979622
0.648051
1.250730
0.000000
0.000000
0.000000
0.000000
1.127440
0.457955
2.059589
1.605517
1.449217
0.691055
1.061729
1.370030
1.339988
0.733194
1.238220
1.383397
0.942888
0.623625
0.527577
1.084706
1.340099
0.973739
1.229751
0.676481
0.000000
0.000000
0.000000
0.000000
1.986899
1.517671
1.981924
1.987054
2.213366
1.884047
1.722852
2.116780
1.799569
1.135821
1.391902
1.113326
1.397238
1.646476
1.263494
0.976092
0.823300
0.881584
0.993298
1.242568
0.000000
0.000000
0.000000
0.000000
2.679919
2.144325
2.829867
2.800138
2.378685
1.786610
2.370452
2.418673
2.059028
2.293878
1.528107
2.132210
1.441775
1.433910
1.355343
1.838104
1.479566
1.326380
1.259434
1.527621
0.000000
0.000000
0.000000
0.000000
3.115718
2.726084
3.232412
2.759748
3.347732
2.651673
2.949562
2.711567
2.333290
2.363999
2.282306
1.729137
2.233495
1.814816
1.681140
1.643498
2.029838
1.295025
1.533008
1.636595
0.000000
0.000000
0.000000
0.000000
2.878032
2.615970
2.806054
2.571002
2.878536
3.079182
3.190719
2.820112
2.923276
2.952161
2.473172
2.656758
2.692109
2.491414
2.171024
2.103574
2.142740
1.870818
1.682684
1.341034
0.000000
0.000000
0.000000
0.000000
4.104501
1.725742
2.168370
1.352522
2.848286
2.112012
2.821993
2.492737
2.685045
3.050820
2.779006
2.761067
2.901103
2.874957
2.773224
2.460234
2.341191
2.538747
1.962670
1.933879
0.000000
0.000000
0.000000
0.000000
0.000000
0.000000
0.000000
0.000000
0.000000
0.000000
0.000000
0.000000
0.000000
0.000000
0.000000
0.000000
0.000000
0.000000
0.000000
0.000000
0.000000
0.000000
0.000000
0.000000
0.000000
0.000000
0.000000
0.000000
0.000000
0.000000
0.000000
0.000000
0.000000
0.000000
0.000000
0.000000
0.000000
0.000000
0.000000
0.000000
0.000000
0.000000
0.000000
0.000000
0.000000
0.000000
0.000000
0.000000
0.000000
0.000000
0.000000
0.000000
0.000000
0.000000
0.000000
0.000000
0.000000
0.000000
0.000000
0.000000
0.000000
0.000000
0.000000
0.000000
0.000000
0.000000
0.000000
0.000000
0.000000
0.000000
0.000000
0.000000
0.000000
0.000000
0.000000
0.000000
0.000000
0.000000
0.000000
0.000000
0.000000
0.000000
0.000000
0.000000
0.000000
0.000000
0.000000
0.000000
0.000000
0.000000
0.000000
0.000000
0.000000
0.000000
0.000000
0.000000
0.000000
0.000000
0.000000
0.000000
0.000000
0.000000
0.000000
0.000000
0.000000
0.000000
0.000000
0.000000
0.000000
0.000000
0.000000
0.000000
0.000000
0.000000
0.000000
0.000000
0.000000
0.000000
0.000000
0.000000
0.000000
0.000000
0.000000
0.000000
0.000000
0.000000
0.000000
0.000000
0.000000
0.000000
0.000000
0.000000
0.000000
0.000000
0.000000
0.000000
0.000000
0.000000
0.000000
0.000000
0.000000
0.000000
0.000000
0.000000
0.000000
0.000000
0.000000
0.000000
0.000000
0.000000
0.000000
0.000000
0.000000
0.000000
0.000000
0.000000
0.000000
0.000000
0.000000
0.000000
0.000000
0.000000
0.000000
0.000000
0.000000
0.000000
0.000000
0.000000
0.000000
0.000000
0.000000
0.000000
0.000000
0.000000
0.000000
0.000000
0.000000
0.000000
0.000000
0.000000
0.000000
0.000000
0.000000
0.000000
0.000000
0.000000
0.000000
0.000000
0.000000
0.000000
0.000000
0.000000
0.000000
0.000000
0.000000
0.000000
0.000000
0.000000
0.000000
0.000000
0.000000
0.000000
0.000000
0.000000
0.000000
0.000000
0.000000
0.000000
0.000000
0.000000
0.000000
0.000000
0.000000
0.000000
0.000000
0.000000
0.000000
0.000000
0.000000
0.000000
0.000000
0.000000
0.000000
0.000000
0.000000
0.000000
0.000000
0.000000
0.000000
0.000000
0.000000
0.000000
</DataArray>
<DataArray NumberOfComponents='1' type='Float32' Name='pressure' format='ascii'>
0.000000
0.000000
0.000000
0.000000
0.000000
0.000000
0.000000
0.000000
0.000000
0.000000
0.000000
0.000000
0.000000
0.000000
0.000000
0.000000
0.000000
0.000000
0.000000
0.000000
0.000000
0.000000
0.000000
0.000000
0.000000
0.000000
0.000000
0.000000
0.000000
0.000000
0.000000
0.000000
0.000000
0.000000
0.000000
0.000000
0.000000
0.000000
0.000000
0.000000
0.000000
0.000000
0.000000
0.000000
0.000000
0.000000
0.000000
0.000000
0.000000
0.000000
0.000000
0.000000
0.000000
0.000000
0.000000
0.000000
0.000000
0.000000
1130.370972
1149.351196
2062.558838
1228.331177
371.280945
2856.156738
711.891602
1204.491699
0.000000
0.000000
0.000000
181.725143
0.000000
0.000000
0.000000
0.000000
0.000000
0.000000
0.000000
0.000000
0.000000
0.000000
0.000000
0.000000
0.000000
0.000000
0.000000
0.000000
1200.254395
246.935715
1765.566040
0.000000
0.000000
2138.623291
0.000000
1193.192871
118.880432
0.000000
0.000000
0.000000
0.000000
0.000000
0.000000
0.000000
0.000000
0.000000
0.000000
0.000000
0.000000
0.000000
0.000000
0.000000
0.000000
0.000000
0.000000
0.000000
1905.099854
31.594765
2197.732666
610.431274
0.000000
2192.865234
785.862488
1630.307129
999.386963
1680.779663
654.613403
520.293152
0.000000
1685.594849
235.529907
0.000000
718.244690
0.000000
0.000000
818.906738
0.000000
0.000000
0.000000
0.000000
3281.522705
1893.427856
703.537781
239.314224
1755.551636
0.000000
856.637817
292.476746
843.590515
810.310608
598.258667
1542.686523
687.816406
409.908630
1910.377808
65.996033
594.464661
0.000000
0.000000
0.000000
0.000000
0.000000
0.000000
0.000000
2671.629639
618.166199
1559.386475
1044.763184
0.000000
0.000000
558.084656
0.000000
654.552795
2111.316895
3080.871826
0.000000
0.000000
1188.393677
0.000000
515.152832
0.000000
0.000000
227.533356
0.000000
0.000000
0.000000
0.000000
0.000000
1976.712402
1238.397339
1111.146484
759.782715
1704.459717
882.959778
1172.325073
1446.168701
0.000000
1486.880737
0.000000
0.000000
342.067719
707.153748
0.000000
738.856689
1617.140015
0.000000
0.000000
0.000000
0.000000
0.000000
0.000000
0.000000
2292.785645
975.819946
1918.253052
1753.370850
676.339355
0.000000
206.139862
1572.656250
1544.490967
0.000000
0.000000
0.000000
726.636780
845.273315
898.134338
9.983874
0.000000
0.000000
0.000000
0.000000
0.000000
0.000000
0.000000
0.000000
793.149658
0.000000
0.000000
2498.519043
0.000000
1220.704102
2342.348145
457.279572
1245.654419
1164.225220
261.490845
2030.050293
212.960556
850.657104
1051.813232
311.114624
778.299316
0.000000
843.354248
2045.971436
0.000000
0.000000
0.000000
0.000000
1934.001709
1899.815186
56.834469
1692.899902
1186.891968
3159.604248
0.000000
1583.020752
2264.758789
1639.857910
858.664917
0.000000
1926.719482
701.097656
3053.726318
10.155958
1440.496338
0.000000
137.868927
0.000000
0.000000
0.000000
0.000000
0.000000
2889.990234
2108.912598
1117.073364
0.000000
0.000000
579.515991
0.000000
0.000000
0.000000
276.006866
1243.872681
0.000000
1279.822388
664.078979
0.000000
1060.350464
0.000000
0.000000
0.000000
858.223755
0.000000
0.000000
0.000000
0.000000
1186.378052
0.000000
1375.944214
0.000000
0.000000
102.159790
0.000000
0.000000
2389.713867
0.000000
0.000000
0.000000
0.000000
0.000000
0.000000
0.000000
0.000000
0.000000
0.000000
0.000000
0.000000
0.000000
0.000000
0.000000
3207.147705
3584.564941
0.000000
0.000000
5941.921875
908.174500
0.000000
1276.953003
0.000000
0.000000
0.000000
0.000000
0.000000
0.000000
0.000000
0.000000
0.000000
0.000000
0.000000
0.000000
372.549927
0.000000
0.000000
0.000000
1095.227173
954.371704
0.000000
0.000000
2414.181885
1887.507690
0.000000
0.000000
2049.100098
27.402126
0.000000
0.000000
2429.001953
2114.178955
0.000000
0.000000
1864.322632
1558.857178
0.000000
0.000000
2458.002441
2362.847900
0.000000
0.000000
1895.769531
1086.768066
0.000000
0.000000
957.927429
0.000000
0.000000
0.000000
1919.836426
1162.246582
0.000000
0.000000
517.617554
0.000000
0.000000
0.000000
2458.930664
2707.170410
0.000000
0.000000
1869.799927
2256.788330
0.000000
0.000000
1495.896729
465.409302
0.000000
0.000000
1190.298828
0.000000
0.000000
0.000000
2607.765869
1902.002075
0.000000
0.000000
3240.830811
4868.946289
0.000000
0.000000
1748.269531
0.000000
0.000000
0.000000
577.618652
0.000000
0.000000
0.000000
849.612183
1658.968140
0.000000
0.000000
0.000000
0.000000
0.000000
0.000000
0.000000
0.000000
0.000000
0.000000
0.000000
0.000000
0.000000
0.000000
0.000000
0.000000
0.000000
0.000000
0.000000
0.000000
0.000000
0.000000
0.000000
0.000000
0.000000
0.000000
1275.875122
0.000000
0.000000
0.000000
1522.543945
2091.927734
0.000000
0.000000
459.902283
588.142151
0.000000
0.000000
0.000000
0.000000
0.000000
0.000000
0.000000
0.000000
0.000000
0.000000
0.000000
0.000000
0.000000
0.000000
0.000000
0.000000
0.000000
0.000000
0.000000
0.000000
0.000000
0.000000
0.000000
0.000000
0.000000
0.000000
0.000000
0.000000
0.000000
0.000000
0.000000
0.000000
0.000000
0.000000
0.000000
0.000000
0.000000
0.000000
0.000000
0.000000
0.000000
0.000000
0.000000
0.000000
0.000000
0.000000
0.000000
0.000000
0.000000
0.000000
0.000000
0.000000
0.000000
0.000000
0.000000
0.000000
0.000000
0.000000
0.000000
0.000000
0.000000
0.000000
0.000000
0.000000
0.000000
0.000000
0.000000
0.000000
0.000000
0.000000
0.000000
0.000000
0.000000
0.000000
0.000000
0.000000
0.000000
0.000000
0.000000
0.000000
0.000000
0.000000
0.000000
0.000000
0.000000
0.000000
0.000000
0.000000
0.000000
0.000000
0.000000
0.000000
0.000000
0.000000
0.000000
0.000000
0.000000
0.000000
0.000000
0.000000
0.000000
0.000000
0.000000
0.000000
0.000000
0.000000
0.000000
0.000000
0.000000
0.000000
0.000000
0.000000
0.000000
0.000000
0.000000
0.000000
0.000000
0.000000
0.000000
0.000000
</DataArray>
</PointData>
<Cells>
<DataArray type='Int32' Name='connectivity' format='ascii'>
0
1
2
3
4
5
6
7
8
9
10
11
12
13
14
15
16
17
18
19
20
21
22
23
24
25
26
27
28
29
30
31
32
33
34
35
36
37
38
39
40
41
42
43
44
45
46
47
48
49
50
51
52
53
54
55
56
57
58
59
60
61
62
63
64
65
66
67
68
69
70
71
72
73
74
75
76
77
78
79
80
81
82
83
84
85
86
87
88
89
90
91
92
93
94
95
96
97
98
99
100
101
102
103
104
105
106
107
108
109
110
111
112
113
114
115
116
117
118
119
120
121
122
123
124
125
126
127
128
129
130
131
132
133
134
135
136
137
138
139
140
141
142
143
144
145
146
147
148
149
150
151
152
153
154
155
156
157
158
159
160
161
162
163
164
165
166
167
168
169
170
171
172
173
174
175
176
177
178
179
180
181
182
183
184
185
186
187
188
189
190
191
192
193
194
195
196
197
198
199
200
201
202
203
204
205
206
207
208
209
210
211
212
213
214
215
216
217
218
219
220
221
222
223
224
225
226
227
228
229
230
231
232
233
234
235
236
237
238
239
240
241
242
243
244
245
246
247
248
249
250
251
252
253
254
255
256
257
258
259
260
261
262
263
264
265
266
267
268
269
270
271
272
273
274
275
276
277
278
279
280
281
282
283
284
285
286
287
288
289
290
291
292
293
294
295
296
297
298
299
300
301
302
303
304
305
306
307
308
309
310
311
312
313
314
315
316
317
318
319
320
321
322
323
324
325
326
327