<?xml version='1.0' encoding='UTF-8'?>
<VTKFile xmlns='VTK' byte_order='LittleEndian' version='0.1' type='UnstructuredGrid'>
<UnstructuredGrid>
<Piece NumberOfCells='584' NumberOfPoints='584'>
<Points>
<DataArray NumberOfComponents='3' type='Float32' Name='Position' format='ascii'>
-0.075000 -0.075000 0.000000
-0.075000 -0.050000 0.000000
-0.075000 -0.025000 0.000000
-0.075000 0.000000 0.000000
-0.075000 0.025000 0.000000
-0.075000 0.050000 0.000000
-0.075000 0.075000 0.000000
-0.075000 0.100000 0.000000
-0.075000 0.125000 0.000000
-0.075000 0.150000 0.000000
-0.075000 0.175000 0.000000
-0.075000 0.200000 0.000000
-0.075000 0.225000 0.000000
-0.075000 0.250000 0.000000
-0.075000 0.275000 0.000000
-0.075000 0.300000 0.000000
-0.075000 0.325000 0.000000
-0.075000 0.350000 0.000000
-0.075000 0.375000 0.000000
-0.075000 0.400000 0.000000
-0.075000 0.425000 0.000000
-0.075000 0.450000 0.000000
-0.075000 0.475000 0.000000
-0.075000 0.500000 0.000000
-0.075000 0.525000 0.000000
-0.075000 0.550000 0.000000
-0.075000 0.575000 0.000000
-0.075000 0.600000 0.000000
-0.050000 -0.075000 0.000000
-0.050000 -0.050000 0.000000
-0.050000 -0.025000 0.000000
-0.050000 0.000000 0.000000
-0.050000 0.025000 0.000000
-0.050000 0.050000 0.000000
-0.050000 0.075000 0.000000
-0.050000 0.100000 0.000000
-0.050000 0.125000 0.000000
-0.050000 0.150000 0.000000
-0.050000 0.175000 0.000000
-0.050000 0.200000 0.000000
-0.050000 0.225000 0.000000
-0.050000 0.250000 0.000000
-0.050000 0.275000 0.000000
-0.050000 0.300000 0.000000
-0.050000 0.325000 0.000000
-0.050000 0.350000 0.000000
-0.050000 0.375000 0.000000
-0.050000 0.400000 0.000000
-0.050000 0.425000 0.000000
-0.050000 0.450000 0.000000
-0.050000 0.475000 0.000000
-0.050000 0.500000 0.000000
-0.050000 0.525000 0.000000
-0.050000 0.550000 0.000000
-0.050000 0.575000 0.000000
-0.050000 0.600000 0.000000
-0.025000 -0.075000 0.000000
-0.025000 -0.050000 0.000000
-0.025000 -0.025000 0.000000
-0.025000 0.000000 0.000000
-0.025000 0.025000 0.000000
-0.025000 0.050000 0.000000
-0.025000 0.075000 0.000000
-0.025000 0.100000 0.000000
-0.025000 0.125000 0.000000
-0.025000 0.150000 0.000000
-0.025000 0.175000 0.000000
-0.025000 0.200000 0.000000
-0.025000 0.225000 0.000000
-0.025000 0.250000 0.000000
-0.025000 0.275000 0.000000
-0.025000 0.300000 0.000000
-0.025000 0.325000 0.000000
-0.025000 0.350000 0.000000
-0.025000 0.375000 0.000000
-0.025000 0.400000 0.000000
-0.025000 0.425000 0.000000
-0.025000 0.450000 0.000000
-0.025000 0.475000 0.000000
-0.025000 0.500000 0.000000
-0.025000 0.525000 0.000000
-0.025000 0.550000 0.000000
-0.025000 0.575000 0.000000
-0.025000 0.600000 0.000000
0.000000 -0.075000 0.000000
0.000000 -0.050000 0.000000
0.000000 -0.025000 0.000000
0.000000 0.000000 0.000000
0.000000 0.025000 0.000000
0.000000 0.050000 0.000000
0.000000 0.075000 0.000000
0.000000 0.100000 0.000000
0.000000 0.125000 0.000000
0.000000 0.150000 0.000000
0.000000 0.175000 0.000000
0.000000 0.200000 0.000000
0.000000 0.225000 0.000000
0.000000 0.250000 0.000000
0.000000 0.275000 0.000000
0.000000 0.300000 0.000000
0.000000 0.325000 0.000000
0.000000 0.350000 0.000000
0.000000 0.375000 0.000000
0.000000 0.400000 0.000000
0.000000 0.425000 0.000000
0.000000 0.450000 0.000000
0.000000 0.475000 0.000000
0.000000 0.500000 0.000000
0.000000 0.525000 0.000000
0.000000 0.550000 0.000000
0.000000 0.575000 0.000000
0.000000 0.600000 0.000000
0.025000 -0.075000 0.000000
0.025000 -0.050000 0.000000
0.025000 -0.025000 0.000000
0.025000 0.000000 0.000000
0.159534 0.024513 0.000000
0.131632 0.025817 0.000000
0.108065 0.023157 0.000000
0.073914 0.024395 0.000000
0.176231 0.047273 0.000000
0.037096 0.021376 0.000000
0.211427 0.065047 0.000000
0.138655 0.045774 0.000000
0.096657 0.041418 0.000000
0.074370 0.052426 0.000000
0.132823 0.067375 0.000000
0.112122 0.062441 0.000000
0.054283 0.036079 0.000000
0.021484 0.039073 0.000000
0.027414 0.062571 0.000000
0.034783 0.083069 0.000000
0.059104 0.097798 0.000000
0.022651 0.105849 0.000000
0.031244 0.136430 0.000000
0.044040 0.112193 0.000000
0.050000 -0.075000 0.000000
0.050000 -0.050000 0.000000
0.050000 -0.025000 0.000000
0.050000 0.000000 0.000000
0.185098 0.024412 0.000000
0.200385 0.044764 0.000000
0.273743 0.063790 0.000000
0.322180 0.039603 0.000000
0.279519 0.084238 0.000000
0.281237 0.100451 0.000000
0.254562 0.066439 0.000000
0.363511 0.079392 0.000000
0.165292 0.062376 0.000000
0.238336 0.034937 0.000000
0.219031 0.081223 0.000000
0.235568 0.054885 0.000000
0.052019 0.069057 0.000000
0.183551 0.083719 0.000000
0.098070 0.085225 0.000000
0.146639 0.083398 0.000000
0.079050 0.071377 0.000000
0.110758 0.098835 0.000000
0.068108 0.123901 0.000000
0.079764 0.115034 0.000000
0.075000 -0.075000 0.000000
0.075000 -0.050000 0.000000
0.075000 -0.025000 0.000000
0.075000 0.000000 0.000000
0.215133 0.021113 0.000000
0.301945 0.051179 0.000000
0.290782 0.019566 0.000000
0.278659 0.036236 0.000000
0.374916 0.045804 0.000000
0.469659 0.026439 0.000000
0.496062 0.033312 0.000000
0.308687 0.067678 0.000000
0.380303 0.081837 0.000000
0.409572 0.106678 0.000000
0.339800 0.071845 0.000000
0.237148 0.098340 0.000000
0.204977 0.105477 0.000000
0.183595 0.111415 0.000000
0.164563 0.096722 0.000000
0.135214 0.110004 0.000000
0.163908 0.123625 0.000000
0.235082 0.120884 0.000000
0.210599 0.127526 0.000000
0.110730 0.117599 0.000000
0.100000 -0.075000 0.000000
0.100000 -0.050000 0.000000
0.100000 -0.025000 0.000000
0.100000 0.000000 0.000000
0.356084 0.023210 0.000000
0.336000 0.027917 0.000000
0.439875 0.028977 0.000000
0.609109 0.048885 0.000000
0.255944 0.024712 0.000000
0.540778 0.027035 0.000000
0.540937 0.050687 0.000000
0.515489 0.050426 0.000000
0.463776 0.043049 0.000000
0.490856 0.069026 0.000000
0.355166 0.056724 0.000000
0.387470 0.021891 0.000000
0.394348 0.055016 0.000000
0.396602 0.105734 0.000000
0.321663 0.085408 0.000000
0.180777 0.141031 0.000000
0.355274 0.115032 0.000000
0.326498 0.107485 0.000000
0.281163 0.124432 0.000000
0.248530 0.111991 0.000000
0.125000 -0.075000 0.000000
0.125000 -0.050000 0.000000
0.125000 -0.025000 0.000000
0.125000 0.000000 0.000000
0.653625 0.021405 0.000000
0.513000 0.023228 0.000000
0.827093 0.038730 0.000000
0.807321 0.024867 0.000000
0.802899 0.046942 0.000000
0.410076 0.025326 0.000000
0.588561 0.035281 0.000000
0.631165 0.033550 0.000000
0.605473 0.021170 0.000000
0.517150 0.072532 0.000000
0.631515 0.074148 0.000000
0.567047 0.049210 0.000000
0.466379 0.071509 0.000000
0.368152 0.120403 0.000000
0.329296 0.121611 0.000000
0.414342 0.075990 0.000000
0.528399 0.086236 0.000000
0.300519 0.121298 0.000000
0.426845 0.089223 0.000000
0.286736 0.144708 0.000000
0.150000 -0.075000 0.000000
0.150000 -0.050000 0.000000
0.150000 -0.025000 0.000000
0.150000 0.000000 0.000000
0.920393 0.047302 0.000000
0.843193 0.021459 0.000000
0.921286 0.066089 0.000000
0.876910 0.075175 0.000000
0.909585 0.024268 0.000000
0.921805 0.121456 0.000000
0.777899 0.021419 0.000000
0.864899 0.041017 0.000000
0.758594 0.029715 0.000000
0.741474 0.071263 0.000000
0.731039 0.027488 0.000000
0.563260 0.022436 0.000000
0.669845 0.034371 0.000000
0.702781 0.020292 0.000000
0.561204 0.076447 0.000000
0.477669 0.099872 0.000000
0.440986 0.050182 0.000000
0.488618 0.088276 0.000000
0.449720 0.080038 0.000000
0.416793 0.049839 0.000000
0.175000 -0.075000 0.000000
0.175000 -0.050000 0.000000
0.175000 -0.025000 0.000000
0.175000 0.000000 0.000000
0.914240 0.244442 0.000000
0.951071 0.040407 0.000000
0.989736 0.057364 0.000000
1.004259 0.043833 0.000000
0.990361 0.019874 0.000000
0.940643 0.091813 0.000000
0.967182 0.027038 0.000000
0.966905 0.059232 0.000000
0.908697 0.112667 0.000000
0.933588 0.024986 0.000000
0.840355 0.058967 0.000000
0.891380 0.070632 0.000000
0.752099 0.047230 0.000000
0.702172 0.066392 0.000000
0.647683 0.060189 0.000000
0.788188 0.057970 0.000000
0.700633 0.040219 0.000000
0.580515 0.066184 0.000000
0.539604 0.116973 0.000000
0.551702 0.087352 0.000000
0.200000 -0.075000 0.000000
0.200000 -0.050000 0.000000
0.200000 -0.025000 0.000000
0.200000 0.000000 0.000000
0.937799 0.539880 0.000000
1.002491 0.087616 0.000000
0.957936 0.372622 0.000000
0.991559 0.107381 0.000000
0.957836 0.212351 0.000000
0.978097 0.232755 0.000000
0.961556 0.244584 0.000000
1.006753 0.143262 0.000000
0.979917 0.085059 0.000000
0.936942 0.223403 0.000000
0.986951 0.140584 0.000000
0.878073 0.022292 0.000000
0.970609 0.148431 0.000000
0.889010 0.045154 0.000000
0.717821 0.083567 0.000000
0.786231 0.077165 0.000000
0.834799 0.086971 0.000000
0.729427 0.053931 0.000000
0.686042 0.061153 0.000000
0.617062 0.065047 0.000000
0.225000 -0.075000 0.000000
0.225000 -0.050000 0.000000
0.225000 -0.025000 0.000000
0.225000 0.000000 0.000000
0.995969 0.207533 0.000000
0.977175 0.791124 0.000000
0.991261 0.189260 0.000000
0.921031 0.354798 0.000000
0.951104 0.191006 0.000000
0.934068 0.382889 0.000000
0.971208 0.366829 0.000000
0.993682 0.269187 0.000000
1.003474 0.228189 0.000000
0.987999 0.292875 0.000000
0.986796 0.256626 0.000000
0.954213 0.308716 0.000000
0.897881 0.245256 0.000000
0.924793 0.231975 0.000000
0.972064 0.111081 0.000000
0.960560 0.130225 0.000000
0.939951 0.116957 0.000000
0.860660 0.067583 0.000000
0.768126 0.084096 0.000000
0.664645 0.056619 0.000000
0.250000 -0.075000 0.000000
0.250000 -0.050000 0.000000
0.250000 -0.025000 0.000000
0.250000 0.000000 0.000000
0.993665 0.745526 0.000000
0.926273 0.659194 0.000000
0.947080 0.405126 0.000000
0.966096 0.402825 0.000000
0.889660 0.740426 0.000000
0.999918 0.460767 0.000000
0.883258 0.647161 0.000000
0.937243 0.576209 0.000000
0.863160 0.405381 0.000000
0.980559 0.350052 0.000000
0.920538 0.274845 0.000000
0.935361 0.289366 0.000000
0.964569 0.320411 0.000000
0.841514 0.240929 0.000000
0.938939 0.276165 0.000000
0.926751 0.152494 0.000000
0.979451 0.179558 0.000000
0.952516 0.073239 0.000000
0.918380 0.089269 0.000000
0.820815 0.074108 0.000000
0.275000 -0.075000 0.000000
0.275000 -0.050000 0.000000
0.275000 -0.025000 0.000000
0.275000 0.000000 0.000000
0.300000 -0.075000 0.000000
0.300000 -0.050000 0.000000
0.300000 -0.025000 0.000000
0.300000 0.000000 0.000000
0.325000 -0.075000 0.000000
0.325000 -0.050000 0.000000
0.325000 -0.025000 0.000000
0.325000 0.000000 0.000000
0.350000 -0.075000 0.000000
0.350000 -0.050000 0.000000
0.350000 -0.025000 0.000000
0.350000 0.000000 0.000000
0.375000 -0.075000 0.000000
0.375000 -0.050000 0.000000
0.375000 -0.025000 0.000000
0.375000 0.000000 0.000000
0.400000 -0.075000 0.000000
0.400000 -0.050000 0.000000
0.400000 -0.025000 0.000000
0.400000 0.000000 0.000000
0.425000 -0.075000 0.000000
0.425000 -0.050000 0.000000
0.425000 -0.025000 0.000000
0.425000 0.000000 0.000000
0.450000 -0.075000 0.000000
0.450000 -0.050000 0.000000
0.450000 -0.025000 0.000000
0.450000 0.000000 0.000000
0.475000 -0.075000 0.000000
0.475000 -0.050000 0.000000
0.475000 -0.025000 0.000000
0.475000 0.000000 0.000000
0.500000 -0.075000 0.000000
0.500000 -0.050000 0.000000
0.500000 -0.025000 0.000000
0.500000 0.000000 0.000000
0.525000 -0.075000 0.000000
0.525000 -0.050000 0.000000
0.525000 -0.025000 0.000000
0.525000 0.000000 0.000000
0.550000 -0.075000 0.000000
0.550000 -0.050000 0.000000
0.550000 -0.025000 0.000000
0.550000 0.000000 0.000000
0.575000 -0.075000 0.000000
0.575000 -0.050000 0.000000
0.575000 -0.025000 0.000000
0.575000 0.000000 0.000000
0.600000 -0.075000 0.000000
0.600000 -0.050000 0.000000
0.600000 -0.025000 0.000000
0.600000 0.000000 0.000000
0.625000 -0.075000 0.000000
0.625000 -0.050000 0.000000
0.625000 -0.025000 0.000000
0.625000 0.000000 0.000000
0.650000 -0.075000 0.000000
0.650000 -0.050000 0.000000
0.650000 -0.025000 0.000000
0.650000 0.000000 0.000000
0.675000 -0.075000 0.000000
0.675000 -0.050000 0.000000
0.675000 -0.025000 0.000000
0.675000 0.000000 0.000000
0.700000 -0.075000 0.000000
0.700000 -0.050000 0.000000
0.700000 -0.025000 0.000000
0.700000 0.000000 0.000000
0.725000 -0.075000 0.000000
0.725000 -0.050000 0.000000
0.725000 -0.025000 0.000000
0.725000 0.000000 0.000000
0.750000 -0.075000 0.000000
0.750000 -0.050000 0.000000
0.750000 -0.025000 0.000000
0.750000 0.000000 0.000000
0.775000 -0.075000 0.000000
0.775000 -0.050000 0.000000
0.775000 -0.025000 0.000000
0.775000 0.000000 0.000000
0.800000 -0.075000 0.000000
0.800000 -0.050000 0.000000
0.800000 -0.025000 0.000000
0.800000 0.000000 0.000000
0.825000 -0.075000 0.000000
0.825000 -0.050000 0.000000
0.825000 -0.025000 0.000000
0.825000 0.000000 0.000000
0.850000 -0.075000 0.000000
0.850000 -0.050000 0.000000
0.850000 -0.025000 0.000000
0.850000 0.000000 0.000000
0.875000 -0.075000 0.000000
0.875000 -0.050000 0.000000
0.875000 -0.025000 0.000000
0.875000 0.000000 0.000000
0.900000 -0.075000 0.000000
0.900000 -0.050000 0.000000
0.900000 -0.025000 0.000000
0.900000 0.000000 0.000000
0.925000 -0.075000 0.000000
0.925000 -0.050000 0.000000
0.925000 -0.025000 0.000000
0.925000 0.000000 0.000000
0.950000 -0.075000 0.000000
0.950000 -0.050000 0.000000
0.950000 -0.025000 0.000000
0.950000 0.000000 0.000000
0.975000 -0.075000 0.000000
0.975000 -0.050000 0.000000
0.975000 -0.025000 0.000000
0.975000 0.000000 0.000000
1.000000 -0.075000 0.000000
1.000000 -0.050000 0.000000
1.000000 -0.025000 0.000000
1.000000 0.000000 0.000000
1.025000 -0.075000 0.000000
1.025000 -0.050000 0.000000
1.025000 -0.025000 0.000000
1.025000 0.000000 0.000000
1.025000 0.025000 0.000000
1.025000 0.050000 0.000000
1.025000 0.075000 0.000000
1.025000 0.100000 0.000000
1.025000 0.125000 0.000000
1.025000 0.150000 0.000000
1.025000 0.175000 0.000000
1.025000 0.200000 0.000000
1.025000 0.225000 0.000000
1.025000 0.250000 0.000000
1.025000 0.275000 0.000000
1.025000 0.300000 0.000000
1.025000 0.325000 0.000000
1.025000 0.350000 0.000000
1.025000 0.375000 0.000000
1.025000 0.400000 0.000000
1.025000 0.425000 0.000000
1.025000 0.450000 0.000000
1.025000 0.475000 0.000000
1.025000 0.500000 0.000000
1.025000 0.525000 0.000000
1.025000 0.550000 0.000000
1.025000 0.575000 0.000000
1.025000 0.600000 0.000000
1.050000 -0.075000 0.000000
1.050000 -0.050000 0.000000
1.050000 -0.025000 0.000000
1.050000 0.000000 0.000000
1.050000 0.025000 0.000000
1.050000 0.050000 0.000000
1.050000 0.075000 0.000000
1.050000 0.100000 0.000000
1.050000 0.125000 0.000000
1.050000 0.150000 0.000000
1.050000 0.175000 0.000000
1.050000 0.200000 0.000000
1.050000 0.225000 0.000000
1.050000 0.250000 0.000000
1.050000 0.275000 0.000000
1.050000 0.300000 0.000000
1.050000 0.325000 0.000000
1.050000 0.350000 0.000000
1.050000 0.375000 0.000000
1.050000 0.400000 0.000000
1.050000 0.425000 0.000000
1.050000 0.450000 0.000000
1.050000 0.475000 0.000000
1.050000 0.500000 0.000000
1.050000 0.525000 0.000000
1.050000 0.550000 0.000000
1.050000 0.575000 0.000000
1.050000 0.600000 0.000000
1.075000 -0.075000 0.000000
1.075000 -0.050000 0.000000
1.075000 -0.025000 0.000000
1.075000 0.000000 0.000000
1.075000 0.025000 0.000000
1.075000 0.050000 0.000000
1.075000 0.075000 0.000000
1.075000 0.100000 0.000000
1.075000 0.125000 0.000000
1.075000 0.150000 0.000000
1.075000 0.175000 0.000000
1.075000 0.200000 0.000000
1.075000 0.225000 0.000000
1.075000 0.250000 0.000000
1.075000 0.275000 0.000000
1.075000 0.300000 0.000000
1.075000 0.325000 0.000000
1.075000 0.350000 0.000000
1.075000 0.375000 0.000000
1.075000 0.400000 0.000000
1.075000 0.425000 0.000000
1.075000 0.450000 0.000000
1.075000 0.475000 0.000000
1.075000 0.500000 0.000000
1.075000 0.525000 0.000000
1.075000 0.550000 0.000000
1.075000 0.575000 0.000000
1.075000 0.600000 0.000000
1.100000 -0.075000 0.000000
1.100000 -0.050000 0.000000
1.100000 -0.025000 0.000000
1.100000 0.000000 0.000000
1.100000 0.025000 0.000000
1.100000 0.050000 0.000000
1.100000 0.075000 0.000000
1.100000 0.100000 0.000000
1.100000 0.125000 0.000000
1.100000 0.150000 0.000000
1.100000 0.175000 0.000000
1.100000 0.200000 0.000000
1.100000 0.225000 0.000000
1.100000 0.250000 0.000000
1.100000 0.275000 0.000000
1.100000 0.300000 0.000000
1.100000 0.325000 0.000000
1.100000 0.350000 0.000000
1.100000 0.375000 0.000000
1.100000 0.400000 0.000000
1.100000 0.425000 0.000000
1.100000 0.450000 0.000000
1.100000 0.475000 0.000000
1.100000 0.500000 0.000000
1.100000 0.525000 0.000000
1.100000 0.550000 0.000000
1.100000 0.575000 0.000000
1.100000 0.600000 0.000000
</DataArray>
</Points>
<PointData>
<DataArray NumberOfComponents='1' type='Int32' Name='ParticleType' format='ascii'>
3
3
3
3
3
3
3
3
3
3
3
3
3
3
3
3
3
3
3
3
3
3
3
3
3
3
2
2
3
3
3
3
3
3
3
3
3
3
3
3
3
3
3
3
3
3
3
3
3
3
3
3
3
3
2
2
3
3
2
2
2
2
2
2
2
2
2
2
2
2
2
2
2
2
2
2
2
2
2
2
2
2
2
2
3
3
2
2
2
2
2
2
2
2
2
2
2
2
2
2
2
2
2
2
2
2
2
2
2
2
2
2
3
3
2
2
0
0
0
0
0
0
0
0
0
0
0
0
0
0
0
0
0
0
0
0
3
3
2
2
0
0
0
0
0
0
0
0
0
0
0
0
0
0
0
0
0
0
0
0
3
3
2
2
0
0
0
0
0
0
0
0
0
0
0
0
0
0
0
0
0
0
0
0
3
3
2
2
0
0
0
0
0
0
0
0
0
0
0
0
0
0
0
0
0
0
0
0
3
3
2
2
0
0
0
0
0
0
0
0
0
0
0
0
0
0
0
0
0
0
0
0
3
3
2
2
0
0
0
0
0
0
0
0
0
0
0
0
0
0
0
0
0
0
0
0
3
3
2
2
0
0
0
0
0
0
0
0
0
0
0
0
0
0
0
0
0
0
0
0
3
3
2
2
0
0
0
0
0
0
0
0
0
0
0
0
0
0
0
0
0
0
0
0
3
3
2
2
0
0
0
0
0
0
0
0
0
0
0
0
0
0
0
0
0
0
0
0
3
3
2
2
0
0
0
0
0
0
0
0
0
0
0
0
0
0
0
0
0
0
0
0
3
3
2
2
3
3
2
2
3
3
2
2
3
3
2
2
3
3
2
2
3
3
2
2
3
3
2
2
3
3
2
2
3
3
2
2
3
3
2
2
3
3
2
2
3
3
2
2
3
3
2
2
3
3
2
2
3
3
2
2
3
3
2
2
3
3
2
2
3
3
2
2
3
3
2
2
3
3
2
2
3
3
2
2
3
3
2
2
3
3
2
2
3
3
2
2
3
3
2
2
3
3
2
2
3
3
2
2
3
3
2
2
3
3
2
2
3
3
2
2
3
3
2
2
2
2
2
2
2
2
2
2
2
2
2
2
2
2
2
2
2
2
2
2
2
2
2
2
3
3
2
2
2
2
2
2
2
2
2
2
2
2
2
2
2
2
2
2
2
2
2
2
2
2
2
2
3
3
3
3
3
3
3
3
3
3
3
3
3
3
3
3
3
3
3
3
3
3
3
3
3
3
2
2
3
3
3
3
3
3
3
3
3
3
3
3
3
3
3
3
3
3
3
3
3
3
3
3
3
3
2
2
</DataArray>
<DataArray NumberOfComponents='1' type='Float32' Name='Velocity' format='ascii'>
0.000000
0.000000
0.000000
0.000000
0.000000
0.000000
0.000000
0.000000
0.000000
0.000000
0.000000
0.000000
0.000000
0.000000
0.000000
0.000000
0.000000
0.000000
0.000000
0.000000
0.000000
0.000000
0.000000
0.000000
0.000000
0.000000
0.000000
0.000000
0.000000
0.000000
0.000000
0.000000
0.000000
0.000000
0.000000
0.000000
0.000000
0.000000
0.000000
0.000000
0.000000
0.000000
0.000000
0.000000
0.000000
0.000000
0.000000
0.000000
0.000000
0.000000
0.000000
0.000000
0.000000
0.000000
0.000000
0.000000
0.000000
0.000000
0.000000
0.000000
0.000000
0.000000
0.000000
0.000000
0.000000
0.000000
0.000000
0.000000
0.000000
0.000000
0.000000
0.000000
0.000000
0.000000
0.000000
0.000000
0.000000
0.000000
0.000000
0.000000
0.000000
0.000000
0.000000
0.000000
0.000000
0.000000
0.000000
0.000000
0.000000
0.000000
0.000000
0.000000
0.000000
0.000000
0.000000
0.000000
0.000000
0.000000
0.000000
0.000000
0.000000
0.000000
0.000000
0.000000
0.000000
0.000000
0.000000
0.000000
0.000000
0.000000
0.000000
0.000000
0.000000
0.000000
0.000000
0.000000
0.198971
0.511342
0.422548
0.062148
0.379823
0.194233
0.689216
0.526431
0.456209
0.220199
0.565198
0.315212
0.111400
0.174446
0.145408
0.231348
0.359023
0.326627
0.141523
0.327750
0.000000
0.000000
0.000000
0.000000
0.436700
0.638644
1.122651
0.721980
0.641768
0.673532
0.942432
1.232663
0.705534
0.455192
0.975870
0.810382
0.238964
1.340613
0.275352
0.667631
0.675635
0.620820
0.271468
0.542434
0.000000
0.000000
0.000000
0.000000
0.066669
0.739328
0.148914
0.350296
0.958154
0.900670
1.247665
0.760235
1.050886
1.477403
0.788863
0.503199
0.439412
0.519980
0.757379
0.534813
0.606074
0.992227
0.719658
0.617437
0.000000
0.000000
0.000000
0.000000
0.782852
0.382510
1.225131
1.794230
0.662800
1.261493
1.265647
1.285281
0.988436
1.204967
1.005862
0.634852
0.902673
1.257066
1.084959
0.637061
1.098179
1.145243
0.758660
0.666597
0.000000
0.000000
0.000000
0.000000
1.424792
1.283785
1.885418
1.644664
2.157191
0.943745
1.579531
1.892245
1.624310
1.338125
1.577801
1.499240
1.084984
1.322280
0.753051
1.434433
1.654624
0.739629
1.293287
0.631198
0.000000
0.000000
0.000000
0.000000
1.314067
1.855304
1.553843
1.779698
1.343886
2.064292
1.992466
1.650563
1.966516
1.562741
2.161547
1.425832
1.463942
1.742600
1.361127
1.289984
1.226657
1.289219
0.961431
1.023944
0.000000
0.000000
0.000000
0.000000
1.609262
0.817397
0.341786
0.791245
0.382169
1.615207
0.715859
0.516068
1.668090
0.974510
1.962888
1.525311
2.113891
1.684374
1.518230
2.099384
2.054233
1.533005
1.480284
1.525090
0.000000
0.000000
0.000000
0.000000
2.164231
1.431685
1.561746
1.224928
1.618324
1.746274
1.767598
1.953278
1.169267
1.852409
1.682857
1.641948
2.203747
1.437347
1.649206
1.845129
2.031018
2.098646
1.687121
1.638903
0.000000
0.000000
0.000000
0.000000
1.904837
3.171964
1.710819
1.131160
1.971764
1.315303
1.646108
1.527625
1.148356
1.625757
1.601794
1.437896
1.355062
1.988679
1.293723
2.187263
1.389430
1.915771
1.708203
1.638218
0.000000
0.000000
0.000000
0.000000
2.440615
2.500014
1.658313
1.761939
2.687407
1.855417
2.429024
2.132472
1.453060
1.618424
0.862992
0.776668
1.649529
1.147330
1.512779
0.818892
1.907121
0.956132
2.142883
2.321970
0.000000
0.000000
0.000000
0.000000
0.000000
0.000000
0.000000
0.000000
0.000000
0.000000
0.000000
0.000000
0.000000
0.000000
0.000000
0.000000
0.000000
0.000000
0.000000
0.000000
0.000000
0.000000
0.000000
0.000000
0.000000
0.000000
0.000000
0.000000
0.000000
0.000000
0.000000
0.000000
0.000000
0.000000
0.000000
0.000000
0.000000
0.000000
0.000000
0.000000
0.000000
0.000000
0.000000
0.000000
0.000000
0.000000
0.000000
0.000000
0.000000
0.000000
0.000000
0.000000
0.000000
0.000000
0.000000
0.000000
0.000000
0.000000
0.000000
0.000000
0.000000
0.000000
0.000000
0.000000
0.000000
0.000000
0.000000
0.000000
0.000000
0.000000
0.000000
0.000000
0.000000
0.000000
0.000000
0.000000
0.000000
0.000000
0.000000
0.000000
0.000000
0.000000
0.000000
0.000000
0.000000
0.000000
0.000000
0.000000
0.000000
0.000000
0.000000
0.000000
0.000000
0.000000
0.000000
0.000000
0.000000
0.000000
0.000000
0.000000
0.000000
0.000000
0.000000
0.000000
0.000000
0.000000
0.000000
0.000000
0.000000
0.000000
0.000000
0.000000
0.000000
0.000000
0.000000
0.000000
0.000000
0.000000
0.000000
0.000000
0.000000
0.000000
0.000000
0.000000
0.000000
0.000000
0.000000
0.000000
0.000000
0.000000
0.000000
0.000000
0.000000
0.000000
0.000000
0.000000
0.000000
0.000000
0.000000
0.000000
0.000000
0.000000
0.000000
0.000000
0.000000
0.000000
0.000000
0.000000
0.000000
0.000000
0.000000
0.000000
0.000000
0.000000
0.000000
0.000000
0.000000
0.000000
0.000000
0.000000
0.000000
0.000000
0.000000
0.000000
0.000000
0.000000
0.000000
0.000000
0.000000
0.000000
0.000000
0.000000
0.000000
0.000000
0.000000
0.000000
0.000000
0.000000
0.000000
0.000000
0.000000
0.000000
0.000000
0.000000
0.000000
0.000000
0.000000
0.000000
0.000000
0.000000
0.000000
0.000000
0.000000
0.000000
0.000000
0.000000
0.000000
0.000000
0.000000
0.000000
0.000000
0.000000
0.000000
0.000000
0.000000
0.000000
0.000000
0.000000
0.000000
0.000000
0.000000
0.000000
0.000000
0.000000
0.000000
0.000000
0.000000
0.000000
0.000000
0.000000
0.000000
0.000000
0.000000
0.000000
0.000000
0.000000
0.000000
0.000000
0.000000
0.000000
0.000000
0.000000
</DataArray>
<DataArray NumberOfComponents='1' type='Float32' Name='pressure' format='ascii'>
0.000000
0.000000
0.000000
0.000000
0.000000
0.000000
0.000000
0.000000
0.000000
0.000000
0.000000
0.000000
0.000000
0.000000
0.000000
0.000000
0.000000
0.000000
0.000000
0.000000
0.000000
0.000000
0.000000
0.000000
0.000000
0.000000
0.000000
0.000000
0.000000
0.000000
0.000000
0.000000
0.000000
0.000000
0.000000
0.000000
0.000000
0.000000
0.000000
0.000000
0.000000
0.000000
0.000000
0.000000
0.000000
0.000000
0.000000
0.000000
0.000000
0.000000
0.000000
0.000000
0.000000
0.000000
0.000000
0.000000
0.000000
0.000000
1324.237549
1231.729126
1519.449951
1304.138062
0.000000
0.000000
0.000000
0.000000
0.000000
0.000000
0.000000
0.000000
0.000000
0.000000
0.000000
0.000000
0.000000
0.000000
0.000000
0.000000
0.000000
0.000000
0.000000
0.000000
0.000000
0.000000
0.000000
0.000000
1586.107544
451.035126
590.445923
760.309631
0.000000
0.000000
0.000000
0.000000
0.000000
0.000000
0.000000
0.000000
0.000000
0.000000
0.000000
0.000000
0.000000
0.000000
0.000000
0.000000
0.000000
0.000000
0.000000
0.000000
0.000000
0.000000
0.000000
0.000000
2656.820068
1542.812988
0.000000
1530.822754
2216.226562
0.000000
1551.341309
3736.844238
45.501991
1223.849487
1709.392334
2955.937012
2140.550293
0.000000
1469.404419
1892.026611
0.000000
1100.381104
393.795837
0.000000
0.000000
0.000000
0.000000
0.000000
2794.053223
2562.662109
655.341125
0.000000
0.000000
0.000000
364.158447
0.000000
0.000000
0.000000
0.000000
1313.513184
0.000000
0.000000
0.000000
0.000000
584.755554
514.514954
0.000000
594.989441
0.000000
0.000000
0.000000
0.000000
2252.926025
968.780396
0.000000
556.913452
1083.620972
0.000000
572.873718
0.000000
0.000000
752.198792
0.000000
0.000000
0.000000
683.188843
0.000000
0.000000
233.810699
0.000000
0.000000
0.000000
0.000000
0.000000
0.000000
0.000000
2327.008545
2234.088623
322.060791
811.872864
0.000000
2048.231689
350.760986
13.157695
0.000000
0.000000
1554.060791
772.235413
1048.724121
1467.510620
0.000000
0.000000
0.000000
0.000000
0.000000
1968.331055
0.000000
0.000000
0.000000
0.000000
1726.229614
2270.333496
0.000000
1000.400635
698.191895
0.000000
931.285950
0.000000
2058.455322
0.000000
2275.362549
550.502991
0.000000
590.794250
0.000000
0.000000
0.000000
0.000000
0.000000
0.000000
0.000000
0.000000
0.000000
0.000000
1185.662598
743.313416
2157.035156
0.000000
1914.413574
0.000000
1438.428101
0.000000
0.000000
1833.902466
1705.236328
0.000000
0.000000
1435.818970
2275.765625
1494.973755
0.000000
0.000000
1468.733398
0.000000
0.000000
0.000000
0.000000
0.000000
1283.485596
933.253113
0.000000
3783.080811
4258.801270
4719.201660
5433.735352
2121.855713
2627.371094
4651.516602
0.000000
2501.480957
0.000000
851.102966
0.000000
0.000000
0.000000
0.000000
1834.958984
0.000000
0.000000
0.000000
0.000000
0.000000
2159.653076
1264.033691
0.000000
2871.288330
0.000000
2673.481201
0.000000
0.000000
0.000000
0.000000
1741.269653
0.000000
1100.428711
0.000000
0.000000
1255.627197
0.000000
0.000000
0.000000
1029.447021
0.000000
0.000000
0.000000
0.000000
2612.930420
1239.077148
561.899658
0.000000
498.955963
0.000000
0.000000
0.000000
0.000000
0.000000
589.562378
0.000000
0.000000
0.000000
0.000000
2219.823975
3537.009277
0.000000
1325.933960
2277.217773
0.000000
1107.707275
0.000000
0.000000
1849.862671
899.879639
0.000000
0.000000
0.000000
0.000000
0.000000
0.000000
0.000000
0.000000
0.000000
0.000000
0.000000
0.000000
0.000000
0.000000
0.000000
0.000000
0.000000
1685.571777
0.000000
0.000000
0.000000
0.000000
2954.669678
2915.775146
0.000000
0.000000
3309.885498
537.192261
0.000000
0.000000
804.484680
0.000000
0.000000
0.000000
2197.910889
1963.984619
0.000000
0.000000
2537.870117
3367.327148
0.000000
0.000000
2009.191772
1061.347412
0.000000
0.000000
0.000000
0.000000
0.000000
0.000000
0.000000
0.000000
0.000000
0.000000
0.000000
0.000000
0.000000
0.000000
77.965187
0.000000
0.000000
0.000000
695.771729
66.926712
0.000000
0.000000
1537.435059
721.962891
0.000000
0.000000
2371.281494
1957.647095
0.000000
0.000000
3457.204834
3320.306396
0.000000
0.000000
1912.985474
0.000000
0.000000
0.000000
2912.871338
1732.162964
0.000000
0.000000
1475.350342
0.000000
0.000000
0.000000
3426.457764
3644.092041
0.000000
0.000000
1245.528687
0.000000
0.000000
0.000000
386.491241
0.000000
0.000000
0.000000
2389.672119
2610.780518
0.000000
0.000000
1363.016724
262.951233
0.000000
0.000000
1427.791992
0.000000
0.000000
0.000000
3126.012451
2761.174316
0.000000
0.000000
3424.791260
4002.760986
0.000000
0.000000
2456.777100
1785.828491
0.000000
0.000000
2364.320068
1590.509766
0.000000
0.000000
2307.114258
1297.252930
0.000000
0.000000
5172.216309
4602.019043
0.000000
0.000000
6490.280273
6721.708008
0.000000
0.000000
4909.666016
3585.340088
2452.071289
4974.345215
1883.430786
0.000000
0.000000
0.000000
0.000000
0.000000
1136.969360
0.000000
0.000000
0.000000
0.000000
0.000000
0.000000
0.000000
0.000000
0.000000
0.000000
0.000000
0.000000
0.000000
0.000000
0.000000
0.000000
0.000000
4600.520508
4402.317871
4402.022461
5219.755371
3290.328857
2371.465820
2585.078125
3333.780518
0.000000
0.000000
1410.372803
0.000000
0.000000
0.000000
0.000000
0.000000
0.000000
0.000000
0.000000
0.000000
0.000000
0.000000
0.000000
0.000000
0.000000
0.000000
0.000000
0.000000
0.000000
0.000000
0.000000
0.000000
0.000000
0.000000
0.000000
0.000000
0.000000
0.000000
0.000000
0.000000
0.000000
0.000000
0.000000
0.000000
0.000000
0.000000
0.000000
0.000000
0.000000
0.000000
0.000000
0.000000
0.000000
0.000000
0.000000
0.000000
0.000000
0.000000
0.000000
0.000000
0.000000
0.000000
0.000000
0.000000
0.000000
0.000000
0.000000
0.000000
0.000000
0.000000
0.000000
0.000000
0.000000
0.000000
0.000000
0.000000
0.000000
0.000000
0.000000
0.000000
0.000000
0.000000
</DataArray>
</PointData>
<Cells>
<DataArray type='Int32' Name='connectivity' format='ascii'>
0
1
2
3
4
5
6
7
8
9
10
11
12
13
14
15
16
17
18
19
20
21
22
23
24
25
26
27
28
29
30
31
32
33
34
35
36
37
38
39
40
41
42
43
44
45
46
47
48
49
50
51
52
53
54
55
56
57
58
59
60
61
62
63
64
65
66
67
68
69
70
71
72
73
74
75
76
77
78
79
80
81
82
83
84
85
86
87
88
89
90
91
92
93
94
95
96
97
98
99
100
101
102
103
104
105
106
107
108
109
110
111
112
113
114
115
116
117
118
119
120
121
122
123
124
125
126
127
128
129
130
131
132
133
134
135
136
137
138
139
140
141
142
143
144
145
146
147
148
149
150
151
152
153
154
155
156
157
158
159
160
161
162
163
164
165
166
167
168
169
170
171
172
173
174
175
176
177
178
179
180
181
182
183
184
185
186
187
188
189
190
191
192
193
194
195
196
197
198
199
200
201
202
203
204
205
206
207
208
209
210
211
212
213
214
215
216
217
218
219
220
221
222
223
224
225
226
227
228
229
230
231
232
233
234
235
236
237
238
239
240
241
242
243
244
245
246
247
248
249
250
251
252
253
254
255
256
257
258
259
260
261
262
263
264
265
266
267
268
269
270
271
272
273
274
275
276
277
278
279
280
281
282
283
284
285
286
287
288
289
290
291
292
293
294
295
296
297
298
299
300
301
302
303
304
305
306
307
308
309
310
311
312
313
314
315
316
317
318
319
320
321
322
323