<?xml version='1.0' encoding='UTF-8'?>
<VTKFile xmlns='VTK' byte_order='LittleEndian' version='0.1' type='UnstructuredGrid'>
<UnstructuredGrid>
<Piece NumberOfCells='584' NumberOfPoints='584'>
<Points>
<DataArray NumberOfComponents='3' type='Float32' Name='Position' format='ascii'>
-0.075000 -0.075000 0.000000
-0.075000 -0.050000 0.000000
-0.075000 -0.025000 0.000000
-0.075000 0.000000 0.000000
-0.075000 0.025000 0.000000
-0.075000 0.050000 0.000000
-0.075000 0.075000 0.000000
-0.075000 0.100000 0.000000
-0.075000 0.125000 0.000000
-0.075000 0.150000 0.000000
-0.075000 0.175000 0.000000
-0.075000 0.200000 0.000000
-0.075000 0.225000 0.000000
-0.075000 0.250000 0.000000
-0.075000 0.275000 0.000000
-0.075000 0.300000 0.000000
-0.075000 0.325000 0.000000
-0.075000 0.350000 0.000000
-0.075000 0.375000 0.000000
-0.075000 0.400000 0.000000
-0.075000 0.425000 0.000000
-0.075000 0.450000 0.000000
-0.075000 0.475000 0.000000
-0.075000 0.500000 0.000000
-0.075000 0.525000 0.000000
-0.075000 0.550000 0.000000
-0.075000 0.575000 0.000000
-0.075000 0.600000 0.000000
-0.050000 -0.075000 0.000000
-0.050000 -0.050000 0.000000
-0.050000 -0.025000 0.000000
-0.050000 0.000000 0.000000
-0.050000 0.025000 0.000000
-0.050000 0.050000 0.000000
-0.050000 0.075000 0.000000
-0.050000 0.100000 0.000000
-0.050000 0.125000 0.000000
-0.050000 0.150000 0.000000
-0.050000 0.175000 0.000000
-0.050000 0.200000 0.000000
-0.050000 0.225000 0.000000
-0.050000 0.250000 0.000000
-0.050000 0.275000 0.000000
-0.050000 0.300000 0.000000
-0.050000 0.325000 0.000000
-0.050000 0.350000 0.000000
-0.050000 0.375000 0.000000
-0.050000 0.400000 0.000000
-0.050000 0.425000 0.000000
-0.050000 0.450000 0.000000
-0.050000 0.475000 0.000000
-0.050000 0.500000 0.000000
-0.050000 0.525000 0.000000
-0.050000 0.550000 0.000000
-0.050000 0.575000 0.000000
-0.050000 0.600000 0.000000
-0.025000 -0.075000 0.000000
-0.025000 -0.050000 0.000000
-0.025000 -0.025000 0.000000
-0.025000 0.000000 0.000000
-0.025000 0.025000 0.000000
-0.025000 0.050000 0.000000
-0.025000 0.075000 0.000000
-0.025000 0.100000 0.000000
-0.025000 0.125000 0.000000
-0.025000 0.150000 0.000000
-0.025000 0.175000 0.000000
-0.025000 0.200000 0.000000
-0.025000 0.225000 0.000000
-0.025000 0.250000 0.000000
-0.025000 0.275000 0.000000
-0.025000 0.300000 0.000000
-0.025000 0.325000 0.000000
-0.025000 0.350000 0.000000
-0.025000 0.375000 0.000000
-0.025000 0.400000 0.000000
-0.025000 0.425000 0.000000
-0.025000 0.450000 0.000000
-0.025000 0.475000 0.000000
-0.025000 0.500000 0.000000
-0.025000 0.525000 0.000000
-0.025000 0.550000 0.000000
-0.025000 0.575000 0.000000
-0.025000 0.600000 0.000000
0.000000 -0.075000 0.000000
0.000000 -0.050000 0.000000
0.000000 -0.025000 0.000000
0.000000 0.000000 0.000000
0.000000 0.025000 0.000000
0.000000 0.050000 0.000000
0.000000 0.075000 0.000000
0.000000 0.100000 0.000000
0.000000 0.125000 0.000000
0.000000 0.150000 0.000000
0.000000 0.175000 0.000000
0.000000 0.200000 0.000000
0.000000 0.225000 0.000000
0.000000 0.250000 0.000000
0.000000 0.275000 0.000000
0.000000 0.300000 0.000000
0.000000 0.325000 0.000000
0.000000 0.350000 0.000000
0.000000 0.375000 0.000000
0.000000 0.400000 0.000000
0.000000 0.425000 0.000000
0.000000 0.450000 0.000000
0.000000 0.475000 0.000000
0.000000 0.500000 0.000000
0.000000 0.525000 0.000000
0.000000 0.550000 0.000000
0.000000 0.575000 0.000000
0.000000 0.600000 0.000000
0.025000 -0.075000 0.000000
0.025000 -0.050000 0.000000
0.025000 -0.025000 0.000000
0.025000 0.000000 0.000000
0.026137 0.024013 0.000000
0.025322 0.046067 0.000000
0.026594 0.068989 0.000000
0.025687 0.091665 0.000000
0.026240 0.114680 0.000000
0.025582 0.137505 0.000000
0.026136 0.160850 0.000000
0.025527 0.183940 0.000000
0.025850 0.207389 0.000000
0.025429 0.230794 0.000000
0.025496 0.254651 0.000000
0.025336 0.278106 0.000000
0.025288 0.302333 0.000000
0.025161 0.326076 0.000000
0.025016 0.350598 0.000000
0.025318 0.374555 0.000000
0.024915 0.399596 0.000000
0.025550 0.423217 0.000000
0.024577 0.449394 0.000000
0.024816 0.472988 0.000000
0.050000 -0.075000 0.000000
0.050000 -0.050000 0.000000
0.050000 -0.025000 0.000000
0.050000 0.000000 0.000000
0.055747 0.023825 0.000000
0.054959 0.045257 0.000000
0.054780 0.068994 0.000000
0.054421 0.090665 0.000000
0.054356 0.114226 0.000000
0.053828 0.136633 0.000000
0.053647 0.159884 0.000000
0.053234 0.182851 0.000000
0.052984 0.206619 0.000000
0.052629 0.229713 0.000000
0.052368 0.253730 0.000000
0.051990 0.277190 0.000000
0.051705 0.301439 0.000000
0.051428 0.325240 0.000000
0.051180 0.349852 0.000000
0.050841 0.373924 0.000000
0.050688 0.398907 0.000000
0.050382 0.423305 0.000000
0.050503 0.448382 0.000000
0.050143 0.472263 0.000000
0.075000 -0.075000 0.000000
0.075000 -0.050000 0.000000
0.075000 -0.025000 0.000000
0.075000 0.000000 0.000000
0.083547 0.023888 0.000000
0.082276 0.045844 0.000000
0.082190 0.068657 0.000000
0.081797 0.091291 0.000000
0.081544 0.114091 0.000000
0.080858 0.136947 0.000000
0.080449 0.160375 0.000000
0.079844 0.183196 0.000000
0.079369 0.206833 0.000000
0.078766 0.230088 0.000000
0.078349 0.253987 0.000000
0.077844 0.277460 0.000000
0.077509 0.301691 0.000000
0.077029 0.325554 0.000000
0.076772 0.349928 0.000000
0.076395 0.374167 0.000000
0.076116 0.398947 0.000000
0.075671 0.423108 0.000000
0.075276 0.448608 0.000000
0.075037 0.472382 0.000000
0.100000 -0.075000 0.000000
0.100000 -0.050000 0.000000
0.100000 -0.025000 0.000000
0.100000 0.000000 0.000000
0.112808 0.023587 0.000000
0.111680 0.045527 0.000000
0.110944 0.068335 0.000000
0.110359 0.090029 0.000000
0.109509 0.113331 0.000000
0.108801 0.135476 0.000000
0.108073 0.158826 0.000000
0.107182 0.181751 0.000000
0.106538 0.205424 0.000000
0.105735 0.228684 0.000000
0.105029 0.252630 0.000000
0.104275 0.276269 0.000000
0.103695 0.300523 0.000000
0.102969 0.324405 0.000000
0.102465 0.349188 0.000000
0.101959 0.373173 0.000000
0.101420 0.398200 0.000000
0.101091 0.422541 0.000000
0.100663 0.447756 0.000000
0.100124 0.471848 0.000000
0.125000 -0.075000 0.000000
0.125000 -0.050000 0.000000
0.125000 -0.025000 0.000000
0.125000 0.000000 0.000000
0.141660 0.023119 0.000000
0.139513 0.044920 0.000000
0.139342 0.067678 0.000000
0.138268 0.089899 0.000000
0.137475 0.112573 0.000000
0.136182 0.135641 0.000000
0.135218 0.158552 0.000000
0.134018 0.181706 0.000000
0.132972 0.205220 0.000000
0.131920 0.228508 0.000000
0.131044 0.252430 0.000000
0.130179 0.276024 0.000000
0.129336 0.300337 0.000000
0.128742 0.324256 0.000000
0.128005 0.348892 0.000000
0.127262 0.373062 0.000000
0.126964 0.398008 0.000000
0.126048 0.422307 0.000000
0.125845 0.447552 0.000000
0.125163 0.471623 0.000000
0.150000 -0.075000 0.000000
0.150000 -0.050000 0.000000
0.150000 -0.025000 0.000000
0.150000 0.000000 0.000000
0.171950 0.024151 0.000000
0.169581 0.044541 0.000000
0.168363 0.066840 0.000000
0.167196 0.088232 0.000000
0.165557 0.110978 0.000000
0.164326 0.133144 0.000000
0.162618 0.156477 0.000000
0.161439 0.179361 0.000000
0.159937 0.203172 0.000000
0.158795 0.226621 0.000000
0.157478 0.250734 0.000000
0.156399 0.274469 0.000000
0.155417 0.298931 0.000000
0.154399 0.323030 0.000000
0.153656 0.347621 0.000000
0.152921 0.372087 0.000000
0.152102 0.396939 0.000000
0.151564 0.421413 0.000000
0.150932 0.446810 0.000000
0.150170 0.470818 0.000000
0.175000 -0.075000 0.000000
0.175000 -0.050000 0.000000
0.175000 -0.025000 0.000000
0.175000 0.000000 0.000000
0.202101 0.023255 0.000000
0.199679 0.043165 0.000000
0.198577 0.065810 0.000000
0.196247 0.087440 0.000000
0.194296 0.110073 0.000000
0.192262 0.132536 0.000000
0.190157 0.155731 0.000000
0.188375 0.178845 0.000000
0.186479 0.202406 0.000000
0.184918 0.225998 0.000000
0.183454 0.249848 0.000000
0.182135 0.273944 0.000000
0.181032 0.298247 0.000000
0.179910 0.322449 0.000000
0.179082 0.347361 0.000000
0.178066 0.371475 0.000000
0.177515 0.396630 0.000000
0.176549 0.421115 0.000000
0.176043 0.446096 0.000000
0.175176 0.470543 0.000000
0.200000 -0.075000 0.000000
0.200000 -0.050000 0.000000
0.200000 -0.025000 0.000000
0.200000 0.000000 0.000000
0.237105 0.022853 0.000000
0.230849 0.041178 0.000000
0.228431 0.063078 0.000000
0.225647 0.083497 0.000000
0.223054 0.106287 0.000000
0.220340 0.128780 0.000000
0.217744 0.151987 0.000000
0.215356 0.175588 0.000000
0.213157 0.199276 0.000000
0.211231 0.223487 0.000000
0.209489 0.247682 0.000000
0.208034 0.271991 0.000000
0.206640 0.296559 0.000000
0.205516 0.321031 0.000000
0.204462 0.345719 0.000000
0.203427 0.370478 0.000000
0.202730 0.395375 0.000000
0.201697 0.420000 0.000000
0.201250 0.445392 0.000000
0.200246 0.469593 0.000000
0.225000 -0.075000 0.000000
0.225000 -0.050000 0.000000
0.225000 -0.025000 0.000000
0.225000 0.000000 0.000000
0.268861 0.021994 0.000000
0.267733 0.042332 0.000000
0.260226 0.061179 0.000000
0.257096 0.082805 0.000000
0.251943 0.104601 0.000000
0.248647 0.127034 0.000000
0.244823 0.150529 0.000000
0.242133 0.174171 0.000000
0.239365 0.198175 0.000000
0.237358 0.222297 0.000000
0.235226 0.246633 0.000000
0.233681 0.271069 0.000000
0.232093 0.295705 0.000000
0.230882 0.320283 0.000000
0.229687 0.345226 0.000000
0.228829 0.369778 0.000000
0.227688 0.394836 0.000000
0.227059 0.419646 0.000000
0.226099 0.444547 0.000000
0.225164 0.469119 0.000000
0.250000 -0.075000 0.000000
0.250000 -0.050000 0.000000
0.250000 -0.025000 0.000000
0.250000 0.000000 0.000000
0.317983 0.021631 0.000000
0.302575 0.027434 0.000000
0.293970 0.050555 0.000000
0.287770 0.071884 0.000000
0.280979 0.096689 0.000000
0.276330 0.120320 0.000000
0.271667 0.145122 0.000000
0.268322 0.169543 0.000000
0.265019 0.194377 0.000000
0.262599 0.219082 0.000000
0.260287 0.243955 0.000000
0.258606 0.268802 0.000000
0.256933 0.293735 0.000000
0.255716 0.318635 0.000000
0.254469 0.343632 0.000000
0.253405 0.368533 0.000000
0.252589 0.393535 0.000000
0.251566 0.418522 0.000000
0.250904 0.443456 0.000000
0.250154 0.468402 0.000000
0.275000 -0.075000 0.000000
0.275000 -0.050000 0.000000
0.275000 -0.025000 0.000000
0.275000 0.000000 0.000000
0.300000 -0.075000 0.000000
0.300000 -0.050000 0.000000
0.300000 -0.025000 0.000000
0.300000 0.000000 0.000000
0.325000 -0.075000 0.000000
0.325000 -0.050000 0.000000
0.325000 -0.025000 0.000000
0.325000 0.000000 0.000000
0.350000 -0.075000 0.000000
0.350000 -0.050000 0.000000
0.350000 -0.025000 0.000000
0.350000 0.000000 0.000000
0.375000 -0.075000 0.000000
0.375000 -0.050000 0.000000
0.375000 -0.025000 0.000000
0.375000 0.000000 0.000000
0.400000 -0.075000 0.000000
0.400000 -0.050000 0.000000
0.400000 -0.025000 0.000000
0.400000 0.000000 0.000000
0.425000 -0.075000 0.000000
0.425000 -0.050000 0.000000
0.425000 -0.025000 0.000000
0.425000 0.000000 0.000000
0.450000 -0.075000 0.000000
0.450000 -0.050000 0.000000
0.450000 -0.025000 0.000000
0.450000 0.000000 0.000000
0.475000 -0.075000 0.000000
0.475000 -0.050000 0.000000
0.475000 -0.025000 0.000000
0.475000 0.000000 0.000000
0.500000 -0.075000 0.000000
0.500000 -0.050000 0.000000
0.500000 -0.025000 0.000000
0.500000 0.000000 0.000000
0.525000 -0.075000 0.000000
0.525000 -0.050000 0.000000
0.525000 -0.025000 0.000000
0.525000 0.000000 0.000000
0.550000 -0.075000 0.000000
0.550000 -0.050000 0.000000
0.550000 -0.025000 0.000000
0.550000 0.000000 0.000000
0.575000 -0.075000 0.000000
0.575000 -0.050000 0.000000
0.575000 -0.025000 0.000000
0.575000 0.000000 0.000000
0.600000 -0.075000 0.000000
0.600000 -0.050000 0.000000
0.600000 -0.025000 0.000000
0.600000 0.000000 0.000000
0.625000 -0.075000 0.000000
0.625000 -0.050000 0.000000
0.625000 -0.025000 0.000000
0.625000 0.000000 0.000000
0.650000 -0.075000 0.000000
0.650000 -0.050000 0.000000
0.650000 -0.025000 0.000000
0.650000 0.000000 0.000000
0.675000 -0.075000 0.000000
0.675000 -0.050000 0.000000
0.675000 -0.025000 0.000000
0.675000 0.000000 0.000000
0.700000 -0.075000 0.000000
0.700000 -0.050000 0.000000
0.700000 -0.025000 0.000000
0.700000 0.000000 0.000000
0.725000 -0.075000 0.000000
0.725000 -0.050000 0.000000
0.725000 -0.025000 0.000000
0.725000 0.000000 0.000000
0.750000 -0.075000 0.000000
0.750000 -0.050000 0.000000
0.750000 -0.025000 0.000000
0.750000 0.000000 0.000000
0.775000 -0.075000 0.000000
0.775000 -0.050000 0.000000
0.775000 -0.025000 0.000000
0.775000 0.000000 0.000000
0.800000 -0.075000 0.000000
0.800000 -0.050000 0.000000
0.800000 -0.025000 0.000000
0.800000 0.000000 0.000000
0.825000 -0.075000 0.000000
0.825000 -0.050000 0.000000
0.825000 -0.025000 0.000000
0.825000 0.000000 0.000000
0.850000 -0.075000 0.000000
0.850000 -0.050000 0.000000
0.850000 -0.025000 0.000000
0.850000 0.000000 0.000000
0.875000 -0.075000 0.000000
0.875000 -0.050000 0.000000
0.875000 -0.025000 0.000000
0.875000 0.000000 0.000000
0.900000 -0.075000 0.000000
0.900000 -0.050000 0.000000
0.900000 -0.025000 0.000000
0.900000 0.000000 0.000000
0.925000 -0.075000 0.000000
0.925000 -0.050000 0.000000
0.925000 -0.025000 0.000000
0.925000 0.000000 0.000000
0.950000 -0.075000 0.000000
0.950000 -0.050000 0.000000
0.950000 -0.025000 0.000000
0.950000 0.000000 0.000000
0.975000 -0.075000 0.000000
0.975000 -0.050000 0.000000
0.975000 -0.025000 0.000000
0.975000 0.000000 0.000000
1.000000 -0.075000 0.000000
1.000000 -0.050000 0.000000
1.000000 -0.025000 0.000000
1.000000 0.000000 0.000000
1.025000 -0.075000 0.000000
1.025000 -0.050000 0.000000
1.025000 -0.025000 0.000000
1.025000 0.000000 0.000000
1.025000 0.025000 0.000000
1.025000 0.050000 0.000000
1.025000 0.075000 0.000000
1.025000 0.100000 0.000000
1.025000 0.125000 0.000000
1.025000 0.150000 0.000000
1.025000 0.175000 0.000000
1.025000 0.200000 0.000000
1.025000 0.225000 0.000000
1.025000 0.250000 0.000000
1.025000 0.275000 0.000000
1.025000 0.300000 0.000000
1.025000 0.325000 0.000000
1.025000 0.350000 0.000000
1.025000 0.375000 0.000000
1.025000 0.400000 0.000000
1.025000 0.425000 0.000000
1.025000 0.450000 0.000000
1.025000 0.475000 0.000000
1.025000 0.500000 0.000000
1.025000 0.525000 0.000000
1.025000 0.550000 0.000000
1.025000 0.575000 0.000000
1.025000 0.600000 0.000000
1.050000 -0.075000 0.000000
1.050000 -0.050000 0.000000
1.050000 -0.025000 0.000000
1.050000 0.000000 0.000000
1.050000 0.025000 0.000000
1.050000 0.050000 0.000000
1.050000 0.075000 0.000000
1.050000 0.100000 0.000000
1.050000 0.125000 0.000000
1.050000 0.150000 0.000000
1.050000 0.175000 0.000000
1.050000 0.200000 0.000000
1.050000 0.225000 0.000000
1.050000 0.250000 0.000000
1.050000 0.275000 0.000000
1.050000 0.300000 0.000000
1.050000 0.325000 0.000000
1.050000 0.350000 0.000000
1.050000 0.375000 0.000000
1.050000 0.400000 0.000000
1.050000 0.425000 0.000000
1.050000 0.450000 0.000000
1.050000 0.475000 0.000000
1.050000 0.500000 0.000000
1.050000 0.525000 0.000000
1.050000 0.550000 0.000000
1.050000 0.575000 0.000000
1.050000 0.600000 0.000000
1.075000 -0.075000 0.000000
1.075000 -0.050000 0.000000
1.075000 -0.025000 0.000000
1.075000 0.000000 0.000000
1.075000 0.025000 0.000000
1.075000 0.050000 0.000000
1.075000 0.075000 0.000000
1.075000 0.100000 0.000000
1.075000 0.125000 0.000000
1.075000 0.150000 0.000000
1.075000 0.175000 0.000000
1.075000 0.200000 0.000000
1.075000 0.225000 0.000000
1.075000 0.250000 0.000000
1.075000 0.275000 0.000000
1.075000 0.300000 0.000000
1.075000 0.325000 0.000000
1.075000 0.350000 0.000000
1.075000 0.375000 0.000000
1.075000 0.400000 0.000000
1.075000 0.425000 0.000000
1.075000 0.450000 0.000000
1.075000 0.475000 0.000000
1.075000 0.500000 0.000000
1.075000 0.525000 0.000000
1.075000 0.550000 0.000000
1.075000 0.575000 0.000000
1.075000 0.600000 0.000000
1.100000 -0.075000 0.000000
1.100000 -0.050000 0.000000
1.100000 -0.025000 0.000000
1.100000 0.000000 0.000000
1.100000 0.025000 0.000000
1.100000 0.050000 0.000000
1.100000 0.075000 0.000000
1.100000 0.100000 0.000000
1.100000 0.125000 0.000000
1.100000 0.150000 0.000000
1.100000 0.175000 0.000000
1.100000 0.200000 0.000000
1.100000 0.225000 0.000000
1.100000 0.250000 0.000000
1.100000 0.275000 0.000000
1.100000 0.300000 0.000000
1.100000 0.325000 0.000000
1.100000 0.350000 0.000000
1.100000 0.375000 0.000000
1.100000 0.400000 0.000000
1.100000 0.425000 0.000000
1.100000 0.450000 0.000000
1.100000 0.475000 0.000000
1.100000 0.500000 0.000000
1.100000 0.525000 0.000000
1.100000 0.550000 0.000000
1.100000 0.575000 0.000000
1.100000 0.600000 0.000000
</DataArray>
</Points>
<PointData>
<DataArray NumberOfComponents='1' type='Int32' Name='ParticleType' format='ascii'>
3
3
3
3
3
3
3
3
3
3
3
3
3
3
3
3
3
3
3
3
3
3
3
3
3
3
2
2
3
3
3
3
3
3
3
3
3
3
3
3
3
3
3
3
3
3
3
3
3
3
3
3
3
3
2
2
3
3
2
2
2
2
2
2
2
2
2
2
2
2
2
2
2
2
2
2
2
2
2
2
2
2
2
2
3
3
2
2
2
2
2
2
2
2
2
2
2
2
2
2
2
2
2
2
2
2
2
2
2
2
2
2
3
3
2
2
0
0
0
0
0
0
0
0
0
0
0
0
0
0
0
0
0
0
0
0
3
3
2
2
0
0
0
0
0
0
0
0
0
0
0
0
0
0
0
0
0
0
0
0
3
3
2
2
0
0
0
0
0
0
0
0
0
0
0
0
0
0
0
0
0
0
0
0
3
3
2
2
0
0
0
0
0
0
0
0
0
0
0
0
0
0
0
0
0
0
0
0
3
3
2
2
0
0
0
0
0
0
0
0
0
0
0
0
0
0
0
0
0
0
0
0
3
3
2
2
0
0
0
0
0
0
0
0
0
0
0
0
0
0
0
0
0
0
0
0
3
3
2
2
0
0
0
0
0
0
0
0
0
0
0
0
0
0
0
0
0
0
0
0
3
3
2
2
0
0
0
0
0
0
0
0
0
0
0
0
0
0
0
0
0
0
0
0
3
3
2
2
0
0
0
0
0
0
0
0
0
0
0
0
0
0
0
0
0
0
0
0
3
3
2
2
0
0
0
0
0
0
0
0
0
0
0
0
0
0
0
0
0
0
0
0
3
3
2
2
3
3
2
2
3
3
2
2
3
3
2
2
3
3
2
2
3
3
2
2
3
3
2
2
3
3
2
2
3
3
2
2
3
3
2
2
3
3
2
2
3
3
2
2
3
3
2
2
3
3
2
2
3
3
2
2
3
3
2
2
3
3
2
2
3
3
2
2
3
3
2
2
3
3
2
2
3
3
2
2
3
3
2
2
3
3
2
2
3
3
2
2
3
3
2
2
3
3
2
2
3
3
2
2
3
3
2
2
3
3
2
2
3
3
2
2
3
3
2
2
2
2
2
2
2
2
2
2
2
2
2
2
2
2
2
2
2
2
2
2
2
2
2
2
3
3
2
2
2
2
2
2
2
2
2
2
2
2
2
2
2
2
2
2
2
2
2
2
2
2
2
2
3
3
3
3
3
3
3
3
3
3
3
3
3
3
3
3
3
3
3
3
3
3
3
3
3
3
2
2
3
3
3
3
3
3
3
3
3
3
3
3
3
3
3
3
3
3
3
3
3
3
3
3
3
3
2
2
</DataArray>
<DataArray NumberOfComponents='1' type='Float32' Name='Velocity' format='ascii'>
0.000000
0.000000
0.000000
0.000000
0.000000
0.000000
0.000000
0.000000
0.000000
0.000000
0.000000
0.000000
0.000000
0.000000
0.000000
0.000000
0.000000
0.000000
0.000000
0.000000
0.000000
0.000000
0.000000
0.000000
0.000000
0.000000
0.000000
0.000000
0.000000
0.000000
0.000000
0.000000
0.000000
0.000000
0.000000
0.000000
0.000000
0.000000
0.000000
0.000000
0.000000
0.000000
0.000000
0.000000
0.000000
0.000000
0.000000
0.000000
0.000000
0.000000
0.000000
0.000000
0.000000
0.000000
0.000000
0.000000
0.000000
0.000000
0.000000
0.000000
0.000000
0.000000
0.000000
0.000000
0.000000
0.000000
0.000000
0.000000
0.000000
0.000000
0.000000
0.000000
0.000000
0.000000
0.000000
0.000000
0.000000
0.000000
0.000000
0.000000
0.000000
0.000000
0.000000
0.000000
0.000000
0.000000
0.000000
0.000000
0.000000
0.000000
0.000000
0.000000
0.000000
0.000000
0.000000
0.000000
0.000000
0.000000
0.000000
0.000000
0.000000
0.000000
0.000000
0.000000
0.000000
0.000000
0.000000
0.000000
0.000000
0.000000
0.000000
0.000000
0.000000
0.000000
0.000000
0.000000
0.028335
0.090024
0.153220
0.161921
0.238696
0.247874
0.284448
0.329118
0.351470
0.381770
0.411632
0.470280
0.490775
0.521104
0.527293
0.545934
0.522028
0.576185
0.598759
0.612432
0.000000
0.000000
0.000000
0.000000
0.153539
0.135937
0.172901
0.219496
0.219129
0.305265
0.332644
0.358838
0.396303
0.451654
0.454995
0.500686
0.528878
0.552028
0.573564
0.600670
0.585967
0.583849
0.613399
0.647498
0.000000
0.000000
0.000000
0.000000
0.242736
0.213690
0.214084
0.254952
0.307188
0.292296
0.329369
0.383479
0.384671
0.421171
0.454444
0.475285
0.515367
0.529408
0.554516
0.592088
0.587695
0.614422
0.598853
0.615602
0.000000
0.000000
0.000000
0.000000
0.331179
0.308063
0.328913
0.319745
0.341242
0.400297
0.375860
0.438506
0.468079
0.461959
0.517095
0.541801
0.546385
0.597941
0.589158
0.607174
0.619407
0.639437
0.637183
0.647887
0.000000
0.000000
0.000000
0.000000
0.449193
0.384037
0.403692
0.430818
0.412118
0.432926
0.468268
0.440942
0.488248
0.486335
0.498849
0.544207
0.556773
0.583467
0.606423
0.621771
0.626061
0.639014
0.630147
0.649517
0.000000
0.000000
0.000000
0.000000
0.577016
0.524408
0.505276
0.520862
0.534644
0.514487
0.543496
0.565388
0.551719
0.599865
0.583457
0.602154
0.628679
0.625631
0.645830
0.664063
0.658376
0.675767
0.668835
0.693158
0.000000
0.000000
0.000000
0.000000
0.724025
0.671013
0.662539
0.623867
0.624546
0.618979
0.595309
0.624680
0.575168
0.596359
0.614898
0.619735
0.639071
0.658191
0.655992
0.669037
0.678613
0.687591
0.677982
0.686092
0.000000
0.000000
0.000000
0.000000
0.985002
0.809791
0.810601
0.814064
0.772267
0.773990
0.738500
0.741994
0.739387
0.715212
0.713808
0.704982
0.707417
0.707047
0.719407
0.723274
0.708959
0.723467
0.726183
0.725696
0.000000
0.000000
0.000000
0.000000
0.978531
1.159958
0.950202
0.923829
0.904139
0.871249
0.821106
0.790722
0.759913
0.741169
0.738107
0.735289
0.732185
0.736218
0.727483
0.737363
0.740474
0.736348
0.735285
0.736296
0.000000
0.000000
0.000000
0.000000
1.938604
1.375430
1.336906
1.321039
1.170140
1.114648
1.023551
0.979605
0.921012
0.880314
0.845624
0.824888
0.808596
0.797930
0.789951
0.782192
0.783361
0.777284
0.776343
0.774953
0.000000
0.000000
0.000000
0.000000
0.000000
0.000000
0.000000
0.000000
0.000000
0.000000
0.000000
0.000000
0.000000
0.000000
0.000000
0.000000
0.000000
0.000000
0.000000
0.000000
0.000000
0.000000
0.000000
0.000000
0.000000
0.000000
0.000000
0.000000
0.000000
0.000000
0.000000
0.000000
0.000000
0.000000
0.000000
0.000000
0.000000
0.000000
0.000000
0.000000
0.000000
0.000000
0.000000
0.000000
0.000000
0.000000
0.000000
0.000000
0.000000
0.000000
0.000000
0.000000
0.000000
0.000000
0.000000
0.000000
0.000000
0.000000
0.000000
0.000000
0.000000
0.000000
0.000000
0.000000
0.000000
0.000000
0.000000
0.000000
0.000000
0.000000
0.000000
0.000000
0.000000
0.000000
0.000000
0.000000
0.000000
0.000000
0.000000
0.000000
0.000000
0.000000
0.000000
0.000000
0.000000
0.000000
0.000000
0.000000
0.000000
0.000000
0.000000
0.000000
0.000000
0.000000
0.000000
0.000000
0.000000
0.000000
0.000000
0.000000
0.000000
0.000000
0.000000
0.000000
0.000000
0.000000
0.000000
0.000000
0.000000
0.000000
0.000000
0.000000
0.000000
0.000000
0.000000
0.000000
0.000000
0.000000
0.000000
0.000000
0.000000
0.000000
0.000000
0.000000
0.000000
0.000000
0.000000
0.000000
0.000000
0.000000
0.000000
0.000000
0.000000
0.000000
0.000000
0.000000
0.000000
0.000000
0.000000
0.000000
0.000000
0.000000
0.000000
0.000000
0.000000
0.000000
0.000000
0.000000
0.000000
0.000000
0.000000
0.000000
0.000000
0.000000
0.000000
0.000000
0.000000
0.000000
0.000000
0.000000
0.000000
0.000000
0.000000
0.000000
0.000000
0.000000
0.000000
0.000000
0.000000
0.000000
0.000000
0.000000
0.000000
0.000000
0.000000
0.000000
0.000000
0.000000
0.000000
0.000000
0.000000
0.000000
0.000000
0.000000
0.000000
0.000000
0.000000
0.000000
0.000000
0.000000
0.000000
0.000000
0.000000
0.000000
0.000000
0.000000
0.000000
0.000000
0.000000
0.000000
0.000000
0.000000
0.000000
0.000000
0.000000
0.000000
0.000000
0.000000
0.000000
0.000000
0.000000
0.000000
0.000000
0.000000
0.000000
0.000000
0.000000
0.000000
0.000000
0.000000
0.000000
0.000000
0.000000
0.000000
0.000000
0.000000
0.000000
0.000000
0.000000
0.000000
0.000000
0.000000
</DataArray>
<DataArray NumberOfComponents='1' type='Float32' Name='pressure' format='ascii'>
0.000000
0.000000
0.000000
0.000000
0.000000
0.000000
0.000000
0.000000
0.000000
0.000000
0.000000
0.000000
0.000000
0.000000
0.000000
0.000000
0.000000
0.000000
0.000000
0.000000
0.000000
0.000000
0.000000
0.000000
0.000000
0.000000
0.000000
0.000000
0.000000
0.000000
0.000000
0.000000
0.000000
0.000000
0.000000
0.000000
0.000000
0.000000
0.000000
0.000000
0.000000
0.000000
0.000000
0.000000
0.000000
0.000000
0.000000
0.000000
0.000000
0.000000
0.000000
0.000000
0.000000
0.000000
0.000000
0.000000
0.000000
0.000000
2582.730225
2409.712891
1808.548340
1703.848755
931.121216
810.375793
444.095917
279.136292
340.567230
246.936676
382.817535
371.036804
447.647522
475.545380
511.347290
482.153351
234.778564
168.260178
0.000000
0.000000
0.000000
0.000000
0.000000
0.000000
0.000000
0.000000
0.000000
0.000000
2760.448242
2532.914551
2224.230225
2452.729980
1685.233154
1689.630371
1543.331665
1289.528687
1179.631958
976.519836
833.206055
697.155640
660.931335
566.237061
636.098999
610.111816
267.344238
266.579285
0.000000
157.033783
0.000000
0.000000
0.000000
0.000000
0.000000
0.000000
0.000000
0.000000
3291.138184
3223.057861
2465.804932
2738.196045
2079.021484
2298.277344
1816.976807
1941.931274
1506.335205
1628.504883
1345.863525
1174.432007
1111.121826
1099.378784
1049.351807
1001.174683
871.678589
645.287292
730.259644
0.000000
0.000000
0.000000
0.000000
0.000000
3349.109375
2970.844482
2384.224121
2402.110840
2011.092285
2030.835815
1463.882324
1592.381470
1445.515869
1090.676514
1069.398682
956.882385
836.973145
791.375000
562.887512
379.182465
124.924576
0.000000
120.641945
193.401398
26.449455
0.000000
0.000000
0.000000
3196.066650
3232.786377
2430.671387
2605.196289
2027.696899
2137.205811
1928.624878
1695.465332
1610.682739
1510.033813
1263.530762
1187.319946
1114.872925
931.899963
786.082520
672.433716
475.189209
269.558838
183.750717
160.821182
281.690308
0.000000
0.000000
0.000000
3192.601562
2546.230225
2214.564697
2235.413330
2018.561646
1773.261841
1557.654663
1623.771606
1270.919189
1124.567139
1116.358765
988.318420
779.755737
705.550903
631.312073
352.334808
427.126007
330.400391
221.181915
64.457092
0.000000
0.000000
0.000000
0.000000
3382.214111
2872.381836
2106.482422
2023.012329
1792.749023
1952.940430
1459.522583
1452.445557
1592.794678
1202.656738
1244.012207
1132.008545
945.862488
801.043823
716.190002
531.805176
360.692535
257.678040
229.193573
138.454605
144.522339
0.000000
0.000000
0.000000
3138.837891
2876.273926
1376.573853
1955.170166
1239.365234
1477.605835
1375.863403
1159.997803
1048.846436
878.709839
718.879028
701.844910
679.580444
571.219360
474.251862
440.766541
321.250885
185.649185
126.406433
50.144032
67.156837
0.000000
0.000000
0.000000
2630.583496
2388.794922
953.559692
1767.423218
1180.789429
1306.720093
1172.591187
1157.852051
1026.821899
1155.990845
1069.388428
1015.434509
820.428162
544.132202
582.440002
325.778046
407.075287
278.001587
221.845993
197.682159
106.138573
0.000000
0.000000
0.000000
2450.398438
1436.374390
856.992981
305.148102
450.335449
978.801025
574.318237
713.683228
546.494690
539.399231
367.741425
184.365128
420.739807
257.971771
365.745331
137.474304
149.171265
39.424404
102.896629
37.538513
73.363426
0.000000
0.000000
0.000000
1775.311035
112.536545
0.000000
1402.307495
1363.538330
281.959229
887.151794
835.919250
532.101440
643.897766
707.910461
584.460876
565.564331
336.003967
370.544525
210.986374
301.759888
123.486267
116.099487
152.954422
34.985596
0.000000
0.000000
0.000000
2224.944580
1061.861450
0.000000
0.000000
0.000000
0.000000
0.000000
0.000000
0.000000
0.000000
0.000000
0.000000
0.000000
0.000000
0.000000
0.000000
0.000000
0.000000
0.000000
0.000000
0.000000
0.000000
0.000000
0.000000
2326.041504
1416.987915
0.000000
0.000000
1186.391602
1560.706665
0.000000
0.000000
1477.136353
0.000000
0.000000
0.000000
0.000000
0.000000
0.000000
0.000000
0.000000
0.000000
0.000000
0.000000
0.000000
0.000000
0.000000
0.000000
0.000000
0.000000
0.000000
0.000000
0.000000
0.000000
0.000000
0.000000
0.000000
0.000000
0.000000
0.000000
0.000000
0.000000
0.000000
0.000000
0.000000
0.000000
0.000000
0.000000
0.000000
0.000000
0.000000
0.000000
0.000000
0.000000
0.000000
0.000000
0.000000
0.000000
0.000000
0.000000
0.000000
0.000000
0.000000
0.000000
0.000000
0.000000
0.000000
0.000000
0.000000
0.000000
0.000000
0.000000
0.000000
0.000000
0.000000
0.000000
0.000000
0.000000
0.000000
0.000000
0.000000
0.000000
0.000000
0.000000
0.000000
0.000000
0.000000
0.000000
0.000000
0.000000
0.000000
0.000000
0.000000
0.000000
0.000000
0.000000
0.000000
0.000000
0.000000
0.000000
0.000000
0.000000
0.000000
0.000000
0.000000
0.000000
0.000000
0.000000
0.000000
0.000000
0.000000
0.000000
0.000000
0.000000
0.000000
0.000000
0.000000
0.000000
0.000000
0.000000
0.000000
0.000000
0.000000
0.000000
0.000000
0.000000
0.000000
0.000000
0.000000
0.000000
0.000000
0.000000
0.000000
0.000000
0.000000
0.000000
0.000000
0.000000
0.000000
0.000000
0.000000
0.000000
0.000000
0.000000
0.000000
0.000000
0.000000
0.000000
0.000000
0.000000
0.000000
0.000000
0.000000
0.000000
0.000000
0.000000
0.000000
0.000000
0.000000
0.000000
0.000000
0.000000
0.000000
0.000000
0.000000
0.000000
0.000000
0.000000
0.000000
0.000000
0.000000
0.000000
0.000000
0.000000
0.000000
0.000000
0.000000
0.000000
0.000000
0.000000
0.000000
0.000000
0.000000
0.000000
0.000000
0.000000
0.000000
0.000000
0.000000
0.000000
0.000000
0.000000
0.000000
0.000000
0.000000
0.000000
0.000000
0.000000
0.000000
0.000000
0.000000
0.000000
0.000000
0.000000
0.000000
0.000000
0.000000
0.000000
0.000000
0.000000
0.000000
0.000000
0.000000
0.000000
0.000000
0.000000
0.000000
0.000000
0.000000
0.000000
0.000000
0.000000
0.000000
0.000000
0.000000
0.000000
0.000000
0.000000
0.000000
0.000000
0.000000
0.000000
0.000000
0.000000
</DataArray>
</PointData>
<Cells>
<DataArray type='Int32' Name='connectivity' format='ascii'>
0
1
2
3
4
5
6
7
8
9
10
11
12
13
14
15
16
17
18
19
20
21
22
23
24
25
26
27
28
29
30
31
32
33
34
35
36
37
38
39
40
41
42
43
44
45
46
47
48
49
50
51
52
53
54
55
56
57
58
59
60
61
62
63
64
65
66
67
68
69
70
71
72
73
74
75
76
77
78
79
80
81
82
83
84
85
86
87
88
89
90
91
92
93
94
95
96
97
98
99
100
101
102
103
104
105
106
107
108
109
110
111
112
113
114
115
116
117
118
119
120
121
122
123
124
125
126
127
128
129
130
131
132
133
134
135
136
137
138
139
140
141
142
143
144
145
146
147
148
149
150
151
152
153
154
155
156
157
158
159
160
161
162
163
164
165
166
167
168
169
170
171
172
173
174
175
176
177
178
179
180
181
182
183
184
185
186
187
188
189
190
191
192
193
194
195
196
197
198
199
200
201
202
203
204
205
206
207
208
209
210
211
212
213
214
215
216
217
218
219
220
221
222
223
224
225
226
227
228
229
230
231
232
233
234
235
236
237
238
239
240
241
242
243
244
245
246
247
248
249
250
251
252
253
254
255
256
257
258
259
260
261
262
263
264
265
266
267
268
269
270
271
272
273
274
275
276
277
278
279
280
281
282
283
284
285
286
287
288
289
290
291
292
293
294
295
296
297