<?xml version='1.0' encoding='UTF-8'?>
<VTKFile xmlns='VTK' byte_order='LittleEndian' version='0.1' type='UnstructuredGrid'>
<UnstructuredGrid>
<Piece NumberOfCells='584' NumberOfPoints='584'>
<Points>
<DataArray NumberOfComponents='3' type='Float32' Name='Position' format='ascii'>
-0.075000 -0.075000 0.000000
-0.075000 -0.050000 0.000000
-0.075000 -0.025000 0.000000
-0.075000 0.000000 0.000000
-0.075000 0.025000 0.000000
-0.075000 0.050000 0.000000
-0.075000 0.075000 0.000000
-0.075000 0.100000 0.000000
-0.075000 0.125000 0.000000
-0.075000 0.150000 0.000000
-0.075000 0.175000 0.000000
-0.075000 0.200000 0.000000
-0.075000 0.225000 0.000000
-0.075000 0.250000 0.000000
-0.075000 0.275000 0.000000
-0.075000 0.300000 0.000000
-0.075000 0.325000 0.000000
-0.075000 0.350000 0.000000
-0.075000 0.375000 0.000000
-0.075000 0.400000 0.000000
-0.075000 0.425000 0.000000
-0.075000 0.450000 0.000000
-0.075000 0.475000 0.000000
-0.075000 0.500000 0.000000
-0.075000 0.525000 0.000000
-0.075000 0.550000 0.000000
-0.075000 0.575000 0.000000
-0.075000 0.600000 0.000000
-0.050000 -0.075000 0.000000
-0.050000 -0.050000 0.000000
-0.050000 -0.025000 0.000000
-0.050000 0.000000 0.000000
-0.050000 0.025000 0.000000
-0.050000 0.050000 0.000000
-0.050000 0.075000 0.000000
-0.050000 0.100000 0.000000
-0.050000 0.125000 0.000000
-0.050000 0.150000 0.000000
-0.050000 0.175000 0.000000
-0.050000 0.200000 0.000000
-0.050000 0.225000 0.000000
-0.050000 0.250000 0.000000
-0.050000 0.275000 0.000000
-0.050000 0.300000 0.000000
-0.050000 0.325000 0.000000
-0.050000 0.350000 0.000000
-0.050000 0.375000 0.000000
-0.050000 0.400000 0.000000
-0.050000 0.425000 0.000000
-0.050000 0.450000 0.000000
-0.050000 0.475000 0.000000
-0.050000 0.500000 0.000000
-0.050000 0.525000 0.000000
-0.050000 0.550000 0.000000
-0.050000 0.575000 0.000000
-0.050000 0.600000 0.000000
-0.025000 -0.075000 0.000000
-0.025000 -0.050000 0.000000
-0.025000 -0.025000 0.000000
-0.025000 0.000000 0.000000
-0.025000 0.025000 0.000000
-0.025000 0.050000 0.000000
-0.025000 0.075000 0.000000
-0.025000 0.100000 0.000000
-0.025000 0.125000 0.000000
-0.025000 0.150000 0.000000
-0.025000 0.175000 0.000000
-0.025000 0.200000 0.000000
-0.025000 0.225000 0.000000
-0.025000 0.250000 0.000000
-0.025000 0.275000 0.000000
-0.025000 0.300000 0.000000
-0.025000 0.325000 0.000000
-0.025000 0.350000 0.000000
-0.025000 0.375000 0.000000
-0.025000 0.400000 0.000000
-0.025000 0.425000 0.000000
-0.025000 0.450000 0.000000
-0.025000 0.475000 0.000000
-0.025000 0.500000 0.000000
-0.025000 0.525000 0.000000
-0.025000 0.550000 0.000000
-0.025000 0.575000 0.000000
-0.025000 0.600000 0.000000
0.000000 -0.075000 0.000000
0.000000 -0.050000 0.000000
0.000000 -0.025000 0.000000
0.000000 0.000000 0.000000
0.000000 0.025000 0.000000
0.000000 0.050000 0.000000
0.000000 0.075000 0.000000
0.000000 0.100000 0.000000
0.000000 0.125000 0.000000
0.000000 0.150000 0.000000
0.000000 0.175000 0.000000
0.000000 0.200000 0.000000
0.000000 0.225000 0.000000
0.000000 0.250000 0.000000
0.000000 0.275000 0.000000
0.000000 0.300000 0.000000
0.000000 0.325000 0.000000
0.000000 0.350000 0.000000
0.000000 0.375000 0.000000
0.000000 0.400000 0.000000
0.000000 0.425000 0.000000
0.000000 0.450000 0.000000
0.000000 0.475000 0.000000
0.000000 0.500000 0.000000
0.000000 0.525000 0.000000
0.000000 0.550000 0.000000
0.000000 0.575000 0.000000
0.000000 0.600000 0.000000
0.025000 -0.075000 0.000000
0.025000 -0.050000 0.000000
0.025000 -0.025000 0.000000
0.025000 0.000000 0.000000
0.288998 0.031322 0.000000
0.263089 0.022603 0.000000
0.266428 0.057245 0.000000
0.189525 0.018822 0.000000
0.379531 0.028824 0.000000
0.066863 0.020346 0.000000
0.470447 0.021286 0.000000
0.313214 0.022509 0.000000
0.226150 0.027910 0.000000
0.149509 0.043482 0.000000
0.309638 0.046929 0.000000
0.193504 0.046420 0.000000
0.155274 0.025358 0.000000
0.028334 0.022663 0.000000
0.021067 0.047038 0.000000
0.049441 0.037545 0.000000
0.108248 0.023352 0.000000
0.089668 0.038041 0.000000
0.093604 0.053447 0.000000
0.129526 0.027956 0.000000
0.050000 -0.075000 0.000000
0.050000 -0.050000 0.000000
0.050000 -0.025000 0.000000
0.050000 0.000000 0.000000
0.356412 0.021763 0.000000
0.520421 0.113467 0.000000
0.509820 0.096873 0.000000
0.345067 0.184807 0.000000
0.421018 0.153215 0.000000
0.639051 0.043335 0.000000
0.488131 0.094964 0.000000
0.760630 0.051503 0.000000
0.406851 0.021110 0.000000
0.425504 0.075801 0.000000
0.363293 0.116824 0.000000
0.461652 0.051110 0.000000
0.059245 0.050347 0.000000
0.446129 0.073735 0.000000
0.277868 0.049168 0.000000
0.324276 0.061892 0.000000
0.211481 0.044091 0.000000
0.337253 0.033659 0.000000
0.124232 0.055791 0.000000
0.177470 0.046955 0.000000
0.075000 -0.075000 0.000000
0.075000 -0.050000 0.000000
0.075000 -0.025000 0.000000
0.075000 0.000000 0.000000
0.395862 0.074033 0.000000
0.495706 0.132133 0.000000
0.536176 0.020783 0.000000
0.518616 0.027487 0.000000
0.797538 0.097271 0.000000
0.827197 0.026594 0.000000
0.826937 0.058872 0.000000
0.192607 0.120086 0.000000
0.777560 0.079558 0.000000
0.805867 0.055797 0.000000
0.642069 0.023695 0.000000
0.505955 0.067443 0.000000
0.344666 0.076472 0.000000
0.390463 0.046795 0.000000
0.426270 0.031678 0.000000
0.377242 0.059252 0.000000
0.345026 0.057501 0.000000
0.358505 0.092728 0.000000
0.388603 0.117102 0.000000
0.242354 0.029591 0.000000
0.100000 -0.075000 0.000000
0.100000 -0.050000 0.000000
0.100000 -0.025000 0.000000
0.100000 0.000000 0.000000
0.688062 0.022660 0.000000
0.607516 0.022619 0.000000
0.730116 0.083826 0.000000
0.902549 0.026844 0.000000
0.425889 0.056847 0.000000
0.879101 0.024284 0.000000
0.860585 0.087799 0.000000
0.641234 0.148279 0.000000
0.855017 0.024241 0.000000
0.845007 0.048551 0.000000
0.664973 0.029681 0.000000
0.676365 0.052828 0.000000
0.808907 0.082579 0.000000
0.782619 0.028123 0.000000
0.532564 0.076935 0.000000
0.446043 0.029129 0.000000
0.712420 0.023504 0.000000
0.731057 0.141514 0.000000
0.577740 0.043677 0.000000
0.497724 0.050556 0.000000
0.125000 -0.075000 0.000000
0.125000 -0.050000 0.000000
0.125000 -0.025000 0.000000
0.125000 0.000000 0.000000
0.901252 0.053689 0.000000
0.918704 0.111026 0.000000
1.000536 0.122872 0.000000
0.936736 0.021090 0.000000
0.912321 0.185451 0.000000
0.760976 0.023126 0.000000
0.625718 0.083401 0.000000
0.846062 0.126203 0.000000
0.922553 0.087727 0.000000
0.880956 0.110023 0.000000
0.949516 0.081146 0.000000
0.763245 0.190748 0.000000
0.698031 0.053743 0.000000
0.744278 0.067655 0.000000
0.552601 0.055902 0.000000
0.781579 0.057111 0.000000
0.738578 0.120299 0.000000
0.464988 0.114498 0.000000
0.708137 0.072452 0.000000
0.420037 0.116648 0.000000
0.150000 -0.075000 0.000000
0.150000 -0.050000 0.000000
0.150000 -0.025000 0.000000
0.150000 0.000000 0.000000
0.670016 0.124548 0.000000
1.001353 0.042766 0.000000
0.941060 0.247969 0.000000
0.601009 0.067051 0.000000
0.978408 0.059302 0.000000
0.442416 0.143438 0.000000
0.980302 0.109943 0.000000
0.730397 0.104764 0.000000
1.000248 0.093194 0.000000
0.952679 0.139169 0.000000
0.959770 0.045232 0.000000
0.868824 0.050222 0.000000
0.922059 0.038560 0.000000
0.938748 0.057247 0.000000
0.886223 0.092098 0.000000
0.823725 0.116187 0.000000
0.806932 0.024409 0.000000
0.845641 0.104220 0.000000
0.836526 0.083497 0.000000
0.658916 0.070835 0.000000
0.175000 -0.075000 0.000000
0.175000 -0.050000 0.000000
0.175000 -0.025000 0.000000
0.175000 0.000000 0.000000
0.347095 0.120426 0.000000
0.941475 0.161559 0.000000
0.963985 0.172471 0.000000
0.991897 0.147600 0.000000
0.971733 0.131274 0.000000
0.508816 0.137502 0.000000
0.967155 0.026415 0.000000
0.697562 0.156933 0.000000
0.571949 0.067898 0.000000
0.993050 0.022093 0.000000
0.843766 0.153397 0.000000
0.915623 0.140246 0.000000
0.752920 0.181638 0.000000
0.951128 0.101602 0.000000
0.973311 0.083810 0.000000
0.624577 0.060358 0.000000
0.999732 0.069848 0.000000
0.773737 0.113455 0.000000
0.699199 0.125292 0.000000
0.777593 0.175024 0.000000
0.200000 -0.075000 0.000000
0.200000 -0.050000 0.000000
0.200000 -0.025000 0.000000
0.200000 0.000000 0.000000
0.724287 0.153255 0.000000
0.448965 0.155124 0.000000
0.613407 0.105952 0.000000
0.957450 0.190560 0.000000
0.597530 0.093413 0.000000
0.764462 0.138167 0.000000
0.826541 0.157024 0.000000
0.985182 0.259027 0.000000
0.799532 0.131469 0.000000
0.438084 0.099777 0.000000
1.005338 0.165648 0.000000
0.912758 0.071726 0.000000
0.223165 0.116888 0.000000
0.696628 0.092528 0.000000
0.871341 0.138149 0.000000
0.540520 0.094417 0.000000
0.897998 0.153400 0.000000
0.690840 0.110506 0.000000
0.936708 0.125050 0.000000
0.877069 0.067654 0.000000
0.225000 -0.075000 0.000000
0.225000 -0.050000 0.000000
0.225000 -0.025000 0.000000
0.225000 0.000000 0.000000
0.659499 0.165810 0.000000
0.938109 0.979246 0.000000
0.884145 0.171285 0.000000
0.410339 0.104249 0.000000
0.381050 0.091338 0.000000
0.224640 0.140131 0.000000
0.814028 0.148639 0.000000
0.984693 0.173024 0.000000
0.883678 0.190808 0.000000
0.572605 0.094897 0.000000
0.936805 0.180416 0.000000
0.406109 0.163169 0.000000
0.536495 0.052383 0.000000
0.763706 0.096062 0.000000
0.470993 0.129433 0.000000
0.655207 0.123029 0.000000
0.725558 0.047188 0.000000
0.347437 0.169812 0.000000
0.525694 0.135831 0.000000
0.564586 0.154100 0.000000
0.250000 -0.075000 0.000000
0.250000 -0.050000 0.000000
0.250000 -0.025000 0.000000
0.250000 0.000000 0.000000
0.933139 0.508586 0.000000
0.702799 0.440675 0.000000
0.670693 0.077787 0.000000
0.690218 0.171817 0.000000
0.493160 0.596646 0.000000
0.782664 0.137188 0.000000
0.536012 0.361329 0.000000
0.624786 0.135165 0.000000
0.490394 0.031909 0.000000
0.865652 0.157883 0.000000
0.469963 0.066999 0.000000
0.310049 0.209057 0.000000
0.580096 0.106324 0.000000
0.737765 0.031857 0.000000
0.606505 0.043663 0.000000
0.609145 0.142342 0.000000
0.573207 0.020287 0.000000
0.897483 0.125991 0.000000
0.318058 0.194145 0.000000
0.904705 0.197099 0.000000
0.275000 -0.075000 0.000000
0.275000 -0.050000 0.000000
0.275000 -0.025000 0.000000
0.275000 0.000000 0.000000
0.300000 -0.075000 0.000000
0.300000 -0.050000 0.000000
0.300000 -0.025000 0.000000
0.300000 0.000000 0.000000
0.325000 -0.075000 0.000000
0.325000 -0.050000 0.000000
0.325000 -0.025000 0.000000
0.325000 0.000000 0.000000
0.350000 -0.075000 0.000000
0.350000 -0.050000 0.000000
0.350000 -0.025000 0.000000
0.350000 0.000000 0.000000
0.375000 -0.075000 0.000000
0.375000 -0.050000 0.000000
0.375000 -0.025000 0.000000
0.375000 0.000000 0.000000
0.400000 -0.075000 0.000000
0.400000 -0.050000 0.000000
0.400000 -0.025000 0.000000
0.400000 0.000000 0.000000
0.425000 -0.075000 0.000000
0.425000 -0.050000 0.000000
0.425000 -0.025000 0.000000
0.425000 0.000000 0.000000
0.450000 -0.075000 0.000000
0.450000 -0.050000 0.000000
0.450000 -0.025000 0.000000
0.450000 0.000000 0.000000
0.475000 -0.075000 0.000000
0.475000 -0.050000 0.000000
0.475000 -0.025000 0.000000
0.475000 0.000000 0.000000
0.500000 -0.075000 0.000000
0.500000 -0.050000 0.000000
0.500000 -0.025000 0.000000
0.500000 0.000000 0.000000
0.525000 -0.075000 0.000000
0.525000 -0.050000 0.000000
0.525000 -0.025000 0.000000
0.525000 0.000000 0.000000
0.550000 -0.075000 0.000000
0.550000 -0.050000 0.000000
0.550000 -0.025000 0.000000
0.550000 0.000000 0.000000
0.575000 -0.075000 0.000000
0.575000 -0.050000 0.000000
0.575000 -0.025000 0.000000
0.575000 0.000000 0.000000
0.600000 -0.075000 0.000000
0.600000 -0.050000 0.000000
0.600000 -0.025000 0.000000
0.600000 0.000000 0.000000
0.625000 -0.075000 0.000000
0.625000 -0.050000 0.000000
0.625000 -0.025000 0.000000
0.625000 0.000000 0.000000
0.650000 -0.075000 0.000000
0.650000 -0.050000 0.000000
0.650000 -0.025000 0.000000
0.650000 0.000000 0.000000
0.675000 -0.075000 0.000000
0.675000 -0.050000 0.000000
0.675000 -0.025000 0.000000
0.675000 0.000000 0.000000
0.700000 -0.075000 0.000000
0.700000 -0.050000 0.000000
0.700000 -0.025000 0.000000
0.700000 0.000000 0.000000
0.725000 -0.075000 0.000000
0.725000 -0.050000 0.000000
0.725000 -0.025000 0.000000
0.725000 0.000000 0.000000
0.750000 -0.075000 0.000000
0.750000 -0.050000 0.000000
0.750000 -0.025000 0.000000
0.750000 0.000000 0.000000
0.775000 -0.075000 0.000000
0.775000 -0.050000 0.000000
0.775000 -0.025000 0.000000
0.775000 0.000000 0.000000
0.800000 -0.075000 0.000000
0.800000 -0.050000 0.000000
0.800000 -0.025000 0.000000
0.800000 0.000000 0.000000
0.825000 -0.075000 0.000000
0.825000 -0.050000 0.000000
0.825000 -0.025000 0.000000
0.825000 0.000000 0.000000
0.850000 -0.075000 0.000000
0.850000 -0.050000 0.000000
0.850000 -0.025000 0.000000
0.850000 0.000000 0.000000
0.875000 -0.075000 0.000000
0.875000 -0.050000 0.000000
0.875000 -0.025000 0.000000
0.875000 0.000000 0.000000
0.900000 -0.075000 0.000000
0.900000 -0.050000 0.000000
0.900000 -0.025000 0.000000
0.900000 0.000000 0.000000
0.925000 -0.075000 0.000000
0.925000 -0.050000 0.000000
0.925000 -0.025000 0.000000
0.925000 0.000000 0.000000
0.950000 -0.075000 0.000000
0.950000 -0.050000 0.000000
0.950000 -0.025000 0.000000
0.950000 0.000000 0.000000
0.975000 -0.075000 0.000000
0.975000 -0.050000 0.000000
0.975000 -0.025000 0.000000
0.975000 0.000000 0.000000
1.000000 -0.075000 0.000000
1.000000 -0.050000 0.000000
1.000000 -0.025000 0.000000
1.000000 0.000000 0.000000
1.025000 -0.075000 0.000000
1.025000 -0.050000 0.000000
1.025000 -0.025000 0.000000
1.025000 0.000000 0.000000
1.025000 0.025000 0.000000
1.025000 0.050000 0.000000
1.025000 0.075000 0.000000
1.025000 0.100000 0.000000
1.025000 0.125000 0.000000
1.025000 0.150000 0.000000
1.025000 0.175000 0.000000
1.025000 0.200000 0.000000
1.025000 0.225000 0.000000
1.025000 0.250000 0.000000
1.025000 0.275000 0.000000
1.025000 0.300000 0.000000
1.025000 0.325000 0.000000
1.025000 0.350000 0.000000
1.025000 0.375000 0.000000
1.025000 0.400000 0.000000
1.025000 0.425000 0.000000
1.025000 0.450000 0.000000
1.025000 0.475000 0.000000
1.025000 0.500000 0.000000
1.025000 0.525000 0.000000
1.025000 0.550000 0.000000
1.025000 0.575000 0.000000
1.025000 0.600000 0.000000
1.050000 -0.075000 0.000000
1.050000 -0.050000 0.000000
1.050000 -0.025000 0.000000
1.050000 0.000000 0.000000
1.050000 0.025000 0.000000
1.050000 0.050000 0.000000
1.050000 0.075000 0.000000
1.050000 0.100000 0.000000
1.050000 0.125000 0.000000
1.050000 0.150000 0.000000
1.050000 0.175000 0.000000
1.050000 0.200000 0.000000
1.050000 0.225000 0.000000
1.050000 0.250000 0.000000
1.050000 0.275000 0.000000
1.050000 0.300000 0.000000
1.050000 0.325000 0.000000
1.050000 0.350000 0.000000
1.050000 0.375000 0.000000
1.050000 0.400000 0.000000
1.050000 0.425000 0.000000
1.050000 0.450000 0.000000
1.050000 0.475000 0.000000
1.050000 0.500000 0.000000
1.050000 0.525000 0.000000
1.050000 0.550000 0.000000
1.050000 0.575000 0.000000
1.050000 0.600000 0.000000
1.075000 -0.075000 0.000000
1.075000 -0.050000 0.000000
1.075000 -0.025000 0.000000
1.075000 0.000000 0.000000
1.075000 0.025000 0.000000
1.075000 0.050000 0.000000
1.075000 0.075000 0.000000
1.075000 0.100000 0.000000
1.075000 0.125000 0.000000
1.075000 0.150000 0.000000
1.075000 0.175000 0.000000
1.075000 0.200000 0.000000
1.075000 0.225000 0.000000
1.075000 0.250000 0.000000
1.075000 0.275000 0.000000
1.075000 0.300000 0.000000
1.075000 0.325000 0.000000
1.075000 0.350000 0.000000
1.075000 0.375000 0.000000
1.075000 0.400000 0.000000
1.075000 0.425000 0.000000
1.075000 0.450000 0.000000
1.075000 0.475000 0.000000
1.075000 0.500000 0.000000
1.075000 0.525000 0.000000
1.075000 0.550000 0.000000
1.075000 0.575000 0.000000
1.075000 0.600000 0.000000
1.100000 -0.075000 0.000000
1.100000 -0.050000 0.000000
1.100000 -0.025000 0.000000
1.100000 0.000000 0.000000
1.100000 0.025000 0.000000
1.100000 0.050000 0.000000
1.100000 0.075000 0.000000
1.100000 0.100000 0.000000
1.100000 0.125000 0.000000
1.100000 0.150000 0.000000
1.100000 0.175000 0.000000
1.100000 0.200000 0.000000
1.100000 0.225000 0.000000
1.100000 0.250000 0.000000
1.100000 0.275000 0.000000
1.100000 0.300000 0.000000
1.100000 0.325000 0.000000
1.100000 0.350000 0.000000
1.100000 0.375000 0.000000
1.100000 0.400000 0.000000
1.100000 0.425000 0.000000
1.100000 0.450000 0.000000
1.100000 0.475000 0.000000
1.100000 0.500000 0.000000
1.100000 0.525000 0.000000
1.100000 0.550000 0.000000
1.100000 0.575000 0.000000
1.100000 0.600000 0.000000
</DataArray>
</Points>
<PointData>
<DataArray NumberOfComponents='1' type='Int32' Name='ParticleType' format='ascii'>
3
3
3
3
3
3
3
3
3
3
3
3
3
3
3
3
3
3
3
3
3
3
3
3
3
3
2
2
3
3
3
3
3
3
3
3
3
3
3
3
3
3
3
3
3
3
3
3
3
3
3
3
3
3
2
2
3
3
2
2
2
2
2
2
2
2
2
2
2
2
2
2
2
2
2
2
2
2
2
2
2
2
2
2
3
3
2
2
2
2
2
2
2
2
2
2
2
2
2
2
2
2
2
2
2
2
2
2
2
2
2
2
3
3
2
2
0
0
0
0
0
0
0
0
0
0
0
0
0
0
0
0
0
0
0
0
3
3
2
2
0
0
0
0
0
0
0
0
0
0
0
0
0
0
0
0
0
0
0
0
3
3
2
2
0
0
0
0
0
0
0
0
0
0
0
0
0
0
0
0
0
0
0
0
3
3
2
2
0
0
0
0
0
0
0
0
0
0
0
0
0
0
0
0
0
0
0
0
3
3
2
2
0
0
0
0
0
0
0
0
0
0
0
0
0
0
0
0
0
0
0
0
3
3
2
2
0
0
0
0
0
0
0
0
0
0
0
0
0
0
0
0
0
0
0
0
3
3
2
2
0
0
0
0
0
0
0
0
0
0
0
0
0
0
0
0
0
0
0
0
3
3
2
2
0
0
0
0
0
0
0
0
0
0
0
0
0
0
0
0
0
0
0
0
3
3
2
2
0
0
0
0
0
0
0
0
0
0
0
0
0
0
0
0
0
0
0
0
3
3
2
2
0
0
0
0
0
0
0
0
0
0
0
0
0
0
0
0
0
0
0
0
3
3
2
2
3
3
2
2
3
3
2
2
3
3
2
2
3
3
2
2
3
3
2
2
3
3
2
2
3
3
2
2
3
3
2
2
3
3
2
2
3
3
2
2
3
3
2
2
3
3
2
2
3
3
2
2
3
3
2
2
3
3
2
2
3
3
2
2
3
3
2
2
3
3
2
2
3
3
2
2
3
3
2
2
3
3
2
2
3
3
2
2
3
3
2
2
3
3
2
2
3
3
2
2
3
3
2
2
3
3
2
2
3
3
2
2
3
3
2
2
3
3
2
2
2
2
2
2
2
2
2
2
2
2
2
2
2
2
2
2
2
2
2
2
2
2
2
2
3
3
2
2
2
2
2
2
2
2
2
2
2
2
2
2
2
2
2
2
2
2
2
2
2
2
2
2
3
3
3
3
3
3
3
3
3
3
3
3
3
3
3
3
3
3
3
3
3
3
3
3
3
3
2
2
3
3
3
3
3
3
3
3
3
3
3
3
3
3
3
3
3
3
3
3
3
3
3
3
3
3
2
2
</DataArray>
<DataArray NumberOfComponents='1' type='Float32' Name='Velocity' format='ascii'>
0.000000
0.000000
0.000000
0.000000
0.000000
0.000000
0.000000
0.000000
0.000000
0.000000
0.000000
0.000000
0.000000
0.000000
0.000000
0.000000
0.000000
0.000000
0.000000
0.000000
0.000000
0.000000
0.000000
0.000000
0.000000
0.000000
0.000000
0.000000
0.000000
0.000000
0.000000
0.000000
0.000000
0.000000
0.000000
0.000000
0.000000
0.000000
0.000000
0.000000
0.000000
0.000000
0.000000
0.000000
0.000000
0.000000
0.000000
0.000000
0.000000
0.000000
0.000000
0.000000
0.000000
0.000000
0.000000
0.000000
0.000000
0.000000
0.000000
0.000000
0.000000
0.000000
0.000000
0.000000
0.000000
0.000000
0.000000
0.000000
0.000000
0.000000
0.000000
0.000000
0.000000
0.000000
0.000000
0.000000
0.000000
0.000000
0.000000
0.000000
0.000000
0.000000
0.000000
0.000000
0.000000
0.000000
0.000000
0.000000
0.000000
0.000000
0.000000
0.000000
0.000000
0.000000
0.000000
0.000000
0.000000
0.000000
0.000000
0.000000
0.000000
0.000000
0.000000
0.000000
0.000000
0.000000
0.000000
0.000000
0.000000
0.000000
0.000000
0.000000
0.000000
0.000000
0.000000
0.000000
0.191717
0.066038
0.120445
0.151715
0.114191
0.224483
0.353244
0.063656
0.190172
0.037261
0.221653
0.213827
0.166971
0.189578
0.110849
0.173634
0.154957
0.056599
0.207447
0.148374
0.000000
0.000000
0.000000
0.000000
0.260097
1.391367
1.254830
2.300669
2.140692
0.176825
1.235056
0.165773
0.215167
0.405026
1.338309
0.287423
0.140237
0.275175
0.422366
0.295096
0.047849
0.391966
0.142300
0.356722
0.000000
0.000000
0.000000
0.000000
0.529181
1.901116
0.192049
0.161675
0.304464
0.176687
0.277811
2.809902
0.330633
0.217212
0.654837
1.597703
0.522805
0.467660
0.318762
0.115152
0.422193
1.591947
1.425204
0.361292
0.000000
0.000000
0.000000
0.000000
0.812471
0.436768
0.667077
0.179290
0.196682
0.130448
0.416885
2.086174
0.332550
0.270989
0.617480
0.336459
0.045773
0.179448
1.215686
0.333756
0.542670
0.939424
0.334619
0.312542
0.000000
0.000000
0.000000
0.000000
0.717277
0.032262
0.254616
0.124518
0.427918
0.233578
0.769825
0.602037
0.221400
0.201084
0.144519
0.273240
0.556197
0.612041
0.751584
0.640310
0.729064
1.436144
0.969925
1.669967
0.000000
0.000000
0.000000
0.000000
1.462230
0.204871
1.218395
1.238403
0.307535
1.769798
0.185874
1.233486
0.260984
0.194229
0.192119
0.226818
0.436510
0.382978
0.240040
0.790846
0.075670
0.386552
0.539210
1.290365
0.000000
0.000000
0.000000
0.000000
1.490989
0.487137
0.104053
0.394603
0.189097
1.820913
0.442776
2.310938
0.984447
0.304087
0.390186
0.396114
0.396726
0.366695
0.291505
0.525917
0.292146
0.846163
1.699794
0.473291
0.000000
0.000000
0.000000
0.000000
1.701414
1.530145
1.187961
0.679446
1.755865
1.085635
0.734120
1.197970
1.124482
1.635752
0.176353
0.242623
2.730721
0.480403
0.510589
1.561168
0.481642
0.642047
0.369631
0.675210
0.000000
0.000000
0.000000
0.000000
0.932385
2.513655
0.731288
1.525483
1.755027
2.742614
0.602939
0.353624
0.619766
1.385041
0.412003
1.217859
0.653991
0.649471
1.498750
2.083372
0.447887
2.720237
0.989475
1.100329
0.000000
0.000000
0.000000
0.000000
3.247293
3.236870
1.410719
1.687565
3.159832
1.369740
3.383308
3.597280
0.361898
0.762196
0.126827
2.550669
1.513935
0.090115
0.593401
2.456580
0.243702
0.193376
2.279593
0.566212
0.000000
0.000000
0.000000
0.000000
0.000000
0.000000
0.000000
0.000000
0.000000
0.000000
0.000000
0.000000
0.000000
0.000000
0.000000
0.000000
0.000000
0.000000
0.000000
0.000000
0.000000
0.000000
0.000000
0.000000
0.000000
0.000000
0.000000
0.000000
0.000000
0.000000
0.000000
0.000000
0.000000
0.000000
0.000000
0.000000
0.000000
0.000000
0.000000
0.000000
0.000000
0.000000
0.000000
0.000000
0.000000
0.000000
0.000000
0.000000
0.000000
0.000000
0.000000
0.000000
0.000000
0.000000
0.000000
0.000000
0.000000
0.000000
0.000000
0.000000
0.000000
0.000000
0.000000
0.000000
0.000000
0.000000
0.000000
0.000000
0.000000
0.000000
0.000000
0.000000
0.000000
0.000000
0.000000
0.000000
0.000000
0.000000
0.000000
0.000000
0.000000
0.000000
0.000000
0.000000
0.000000
0.000000
0.000000
0.000000
0.000000
0.000000
0.000000
0.000000
0.000000
0.000000
0.000000
0.000000
0.000000
0.000000
0.000000
0.000000
0.000000
0.000000
0.000000
0.000000
0.000000
0.000000
0.000000
0.000000
0.000000
0.000000
0.000000
0.000000
0.000000
0.000000
0.000000
0.000000
0.000000
0.000000
0.000000
0.000000
0.000000
0.000000
0.000000
0.000000
0.000000
0.000000
0.000000
0.000000
0.000000
0.000000
0.000000
0.000000
0.000000
0.000000
0.000000
0.000000
0.000000
0.000000
0.000000
0.000000
0.000000
0.000000
0.000000
0.000000
0.000000
0.000000
0.000000
0.000000
0.000000
0.000000
0.000000
0.000000
0.000000
0.000000
0.000000
0.000000
0.000000
0.000000
0.000000
0.000000
0.000000
0.000000
0.000000
0.000000
0.000000
0.000000
0.000000
0.000000
0.000000
0.000000
0.000000
0.000000
0.000000
0.000000
0.000000
0.000000
0.000000
0.000000
0.000000
0.000000
0.000000
0.000000
0.000000
0.000000
0.000000
0.000000
0.000000
0.000000
0.000000
0.000000
0.000000
0.000000
0.000000
0.000000
0.000000
0.000000
0.000000
0.000000
0.000000
0.000000
0.000000
0.000000
0.000000
0.000000
0.000000
0.000000
0.000000
0.000000
0.000000
0.000000
0.000000
0.000000
0.000000
0.000000
0.000000
0.000000
0.000000
0.000000
0.000000
0.000000
0.000000
0.000000
0.000000
0.000000
0.000000
0.000000
0.000000
0.000000
0.000000
0.000000
0.000000
0.000000
</DataArray>
<DataArray NumberOfComponents='1' type='Float32' Name='pressure' format='ascii'>
0.000000
0.000000
0.000000
0.000000
0.000000
0.000000
0.000000
0.000000
0.000000
0.000000
0.000000
0.000000
0.000000
0.000000
0.000000
0.000000
0.000000
0.000000
0.000000
0.000000
0.000000
0.000000
0.000000
0.000000
0.000000
0.000000
0.000000
0.000000
0.000000
0.000000
0.000000
0.000000
0.000000
0.000000
0.000000
0.000000
0.000000
0.000000
0.000000
0.000000
0.000000
0.000000
0.000000
0.000000
0.000000
0.000000
0.000000
0.000000
0.000000
0.000000
0.000000
0.000000
0.000000
0.000000
0.000000
0.000000
0.000000
0.000000
389.009949
204.096085
0.000000
1254.264282
0.000000
0.000000
0.000000
0.000000
0.000000
0.000000
0.000000
0.000000
0.000000
0.000000
0.000000
0.000000
0.000000
0.000000
0.000000
0.000000
0.000000
0.000000
0.000000
0.000000
0.000000
0.000000
0.000000
0.000000
600.892822
73.555733
0.000000
0.000000
0.000000
0.000000
0.000000
0.000000
0.000000
0.000000
0.000000
0.000000
0.000000
0.000000
0.000000
0.000000
0.000000
0.000000
0.000000
0.000000
0.000000
0.000000
0.000000
0.000000
0.000000
0.000000
0.000000
0.000000
1679.341675
1227.552246
1132.752686
1187.327148
0.000000
1781.774536
0.000000
1097.644897
1773.994385
1025.237671
801.203735
0.000000
0.000000
0.000000
601.270691
0.000000
0.000000
0.000000
1083.154541
0.000000
0.000000
0.000000
0.000000
0.000000
1822.843750
366.356781
0.000000
0.000000
0.000000
0.000000
0.000000
918.374207
0.000000
1092.792725
2553.959717
3895.545654
0.000000
669.823181
0.000000
0.000000
0.000000
0.000000
0.000000
0.000000
0.000000
0.000000
0.000000
0.000000
2618.474854
1152.798096
0.000000
0.000000
952.989563
0.000000
0.000000
1945.271240
2248.966309
0.000000
932.353455
1728.239868
2340.529297
0.000000
0.000000
1569.450195
2484.185303
0.000000
1326.661621
0.000000
0.000000
0.000000
0.000000
0.000000
1228.531006
379.069275
615.073792
0.000000
0.000000
1686.135498
1639.646362
2122.654541
552.207520
0.000000
1815.196777
1807.359131
0.000000
528.147766
739.036194
102.204498
0.000000
1750.652100
0.000000
0.000000
0.000000
0.000000
0.000000
0.000000
185.199570
0.000000
2.850476
392.448334
0.000000
1621.319092
116.682388
2890.292725
0.000000
0.000000
1015.856079
665.420227
774.624878
0.000000
2170.781982
0.000000
1421.140015
2776.968506
0.000000
0.000000
975.712708
0.000000
0.000000
0.000000
485.066803
0.000000
0.000000
1017.805664
0.000000
1976.382080
1112.313110
0.000000
1677.444214
1511.864990
643.893433
1040.930908
1135.863525
1597.038330
2688.629639
0.000000
316.803375
0.000000
2272.933838
1706.843140
0.000000
0.000000
0.000000
0.000000
2452.798584
91.740982
0.000000
0.000000
1294.131958
0.000000
221.949493
79.134422
375.811279
0.000000
0.000000
2168.982178
0.000000
0.000000
0.000000
0.000000
0.000000
0.000000
1653.646851
687.497009
0.000000
0.000000
0.000000
0.000000
3018.071045
1119.606689
0.000000
0.000000
0.000000
0.000000
2093.169434
0.000000
0.000000
0.000000
703.129700
0.000000
39.515553
1808.607056
0.000000
0.000000
0.000000
0.000000
470.115448
1666.282715
1466.631714
459.778473
0.000000
0.000000
254.866699
0.000000
0.000000
0.000000
0.000000
0.000000
0.000000
0.000000
0.000000
0.000000
0.000000
0.000000
0.000000
0.000000
263.132294
1065.279175
0.000000
0.000000
1026.859253
0.000000
0.000000
0.000000
0.000000
0.000000
888.921387
1570.536011
0.000000
0.000000
0.000000
0.000000
0.000000
1082.483643
0.000000
0.000000
0.000000
0.000000
0.000000
0.000000
0.000000
1678.225220
1196.936157
0.000000
0.000000
753.328064
0.000000
0.000000
0.000000
0.000000
748.679504
0.000000
0.000000
0.000000
743.328491
0.000000
0.000000
0.000000
1406.867920
172.728867
0.000000
0.000000
2794.566406
2883.379883
0.000000
0.000000
2359.499756
1860.071655
0.000000
0.000000
3834.997559
4397.052734
0.000000
0.000000
2538.888428
1442.838745
0.000000
0.000000
1788.693237
481.537506
0.000000
0.000000
2956.687988
2208.085693
0.000000
0.000000
1085.677979
0.000000
0.000000
0.000000
3331.593262
2666.050293
0.000000
0.000000
4113.149414
1755.328857
0.000000
0.000000
4513.630371
4056.789062
0.000000
0.000000
2707.647217
1386.739258
0.000000
0.000000
1512.371704
0.000000
0.000000
0.000000
1701.307495
1360.012939
0.000000
0.000000
1943.097046
1958.824097
0.000000
0.000000
2743.863770
2631.874512
0.000000
0.000000
1392.337891
418.683472
0.000000
0.000000
1451.322144
0.000000
0.000000
0.000000
1407.661255
1459.217041
0.000000
0.000000
1725.073608
2573.615967
0.000000
0.000000
1349.375488
1600.715698
0.000000
0.000000
2134.472656
2248.065918
0.000000
0.000000
2146.555664
2890.316406
0.000000
0.000000
1278.675049
828.553345
0.000000
0.000000
2676.399170
1461.342896
0.000000
0.000000
2609.237549
1381.563721
0.000000
0.000000
1986.547485
1387.782227
0.000000
0.000000
2637.212891
2777.879883
0.000000
0.000000
1462.963623
531.159302
0.000000
1272.837891
849.945312
211.042038
0.000000
1602.887817
0.000000
0.000000
0.000000
0.000000
0.000000
0.000000
0.000000
0.000000
0.000000
0.000000
0.000000
0.000000
0.000000
0.000000
0.000000
0.000000
0.000000
0.000000
0.000000
0.000000
1150.860962
920.648376
233.775818
1017.722839
504.323181
471.215088
667.245300
1463.505371
1637.534058
0.000000
0.000000
0.000000
0.000000
0.000000
0.000000
0.000000
0.000000
0.000000
0.000000
0.000000
0.000000
0.000000
0.000000
0.000000
0.000000
0.000000
0.000000
0.000000
0.000000
0.000000
0.000000
0.000000
0.000000
0.000000
0.000000
0.000000
0.000000
0.000000
0.000000
0.000000
0.000000
0.000000
0.000000
0.000000
0.000000
0.000000
0.000000
0.000000
0.000000
0.000000
0.000000
0.000000
0.000000
0.000000
0.000000
0.000000
0.000000
0.000000
0.000000
0.000000
0.000000
0.000000
0.000000
0.000000
0.000000
0.000000
0.000000
0.000000
0.000000
0.000000
0.000000
0.000000
0.000000
0.000000
0.000000
0.000000
0.000000
0.000000
0.000000
0.000000
0.000000
0.000000
</DataArray>
</PointData>
<Cells>
<DataArray type='Int32' Name='connectivity' format='ascii'>
0
1
2
3
4
5
6
7
8
9
10
11
12
13
14
15
16
17
18
19
20
21
22
23
24
25
26
27
28
29
30
31
32
33
34
35
36
37
38
39
40
41
42
43
44
45
46
47
48
49
50
51
52
53
54
55
56
57
58
59
60
61
62
63
64
65
66
67
68
69
70
71
72
73
74
75
76
77
78
79
80
81
82
83
84
85
86
87
88
89
90
91
92
93
94
95
96
97
98
99
100
101
102
103
104
105
106
107
108
109
110
111
112
113
114
115
116
117
118
119
120
121
122
123
124
125
126
127
128
129
130
131
132
133
134
135
136
137
138
139
140
141
142
143
144
145
146
147
148
149
150
151
152
153
154
155
156
157
158
159
160
161
162
163
164
165
166
167
168
169
170
171
172
173
174
175
176
177
178
179
180
181
182
183
184
185
186
187
188
189
190
191
192
193
194
195
196
197
198
199
200
201
202
203
204
205
206
207
208
209
210
211
212
213
214
215
216
217
218
219
220
221
222
223
224
225
226
227
228
229
230
231
232
233
234
235
236
237
238
239
240
241
242
243
244
245
246
247
248
249
250
251
252
253
254
255
256
257
258
259
260
261
262
263
264
265
266
267
268
269
270
271
272
273
274
275
276
277
278
279
280
281
282
283
284
285
286
287
288
289
290
291
292
293
294
295
296
297
298
299
300
301
302
303
304
305
306
307
308
309
310
311
312
313
314
315
316
317
318
319
320
321
322