<?xml version='1.0' encoding='UTF-8'?>
<VTKFile xmlns='VTK' byte_order='LittleEndian' version='0.1' type='UnstructuredGrid'>
<UnstructuredGrid>
<Piece NumberOfCells='584' NumberOfPoints='584'>
<Points>
<DataArray NumberOfComponents='3' type='Float32' Name='Position' format='ascii'>
-0.075000 -0.075000 0.000000
-0.075000 -0.050000 0.000000
-0.075000 -0.025000 0.000000
-0.075000 0.000000 0.000000
-0.075000 0.025000 0.000000
-0.075000 0.050000 0.000000
-0.075000 0.075000 0.000000
-0.075000 0.100000 0.000000
-0.075000 0.125000 0.000000
-0.075000 0.150000 0.000000
-0.075000 0.175000 0.000000
-0.075000 0.200000 0.000000
-0.075000 0.225000 0.000000
-0.075000 0.250000 0.000000
-0.075000 0.275000 0.000000
-0.075000 0.300000 0.000000
-0.075000 0.325000 0.000000
-0.075000 0.350000 0.000000
-0.075000 0.375000 0.000000
-0.075000 0.400000 0.000000
-0.075000 0.425000 0.000000
-0.075000 0.450000 0.000000
-0.075000 0.475000 0.000000
-0.075000 0.500000 0.000000
-0.075000 0.525000 0.000000
-0.075000 0.550000 0.000000
-0.075000 0.575000 0.000000
-0.075000 0.600000 0.000000
-0.050000 -0.075000 0.000000
-0.050000 -0.050000 0.000000
-0.050000 -0.025000 0.000000
-0.050000 0.000000 0.000000
-0.050000 0.025000 0.000000
-0.050000 0.050000 0.000000
-0.050000 0.075000 0.000000
-0.050000 0.100000 0.000000
-0.050000 0.125000 0.000000
-0.050000 0.150000 0.000000
-0.050000 0.175000 0.000000
-0.050000 0.200000 0.000000
-0.050000 0.225000 0.000000
-0.050000 0.250000 0.000000
-0.050000 0.275000 0.000000
-0.050000 0.300000 0.000000
-0.050000 0.325000 0.000000
-0.050000 0.350000 0.000000
-0.050000 0.375000 0.000000
-0.050000 0.400000 0.000000
-0.050000 0.425000 0.000000
-0.050000 0.450000 0.000000
-0.050000 0.475000 0.000000
-0.050000 0.500000 0.000000
-0.050000 0.525000 0.000000
-0.050000 0.550000 0.000000
-0.050000 0.575000 0.000000
-0.050000 0.600000 0.000000
-0.025000 -0.075000 0.000000
-0.025000 -0.050000 0.000000
-0.025000 -0.025000 0.000000
-0.025000 0.000000 0.000000
-0.025000 0.025000 0.000000
-0.025000 0.050000 0.000000
-0.025000 0.075000 0.000000
-0.025000 0.100000 0.000000
-0.025000 0.125000 0.000000
-0.025000 0.150000 0.000000
-0.025000 0.175000 0.000000
-0.025000 0.200000 0.000000
-0.025000 0.225000 0.000000
-0.025000 0.250000 0.000000
-0.025000 0.275000 0.000000
-0.025000 0.300000 0.000000
-0.025000 0.325000 0.000000
-0.025000 0.350000 0.000000
-0.025000 0.375000 0.000000
-0.025000 0.400000 0.000000
-0.025000 0.425000 0.000000
-0.025000 0.450000 0.000000
-0.025000 0.475000 0.000000
-0.025000 0.500000 0.000000
-0.025000 0.525000 0.000000
-0.025000 0.550000 0.000000
-0.025000 0.575000 0.000000
-0.025000 0.600000 0.000000
0.000000 -0.075000 0.000000
0.000000 -0.050000 0.000000
0.000000 -0.025000 0.000000
0.000000 0.000000 0.000000
0.000000 0.025000 0.000000
0.000000 0.050000 0.000000
0.000000 0.075000 0.000000
0.000000 0.100000 0.000000
0.000000 0.125000 0.000000
0.000000 0.150000 0.000000
0.000000 0.175000 0.000000
0.000000 0.200000 0.000000
0.000000 0.225000 0.000000
0.000000 0.250000 0.000000
0.000000 0.275000 0.000000
0.000000 0.300000 0.000000
0.000000 0.325000 0.000000
0.000000 0.350000 0.000000
0.000000 0.375000 0.000000
0.000000 0.400000 0.000000
0.000000 0.425000 0.000000
0.000000 0.450000 0.000000
0.000000 0.475000 0.000000
0.000000 0.500000 0.000000
0.000000 0.525000 0.000000
0.000000 0.550000 0.000000
0.000000 0.575000 0.000000
0.000000 0.600000 0.000000
0.025000 -0.075000 0.000000
0.025000 -0.050000 0.000000
0.025000 -0.025000 0.000000
0.025000 0.000000 0.000000
0.132782 0.040469 0.000000
0.167182 0.143515 0.000000
0.146673 0.024033 0.000000
0.169511 0.025171 0.000000
0.216611 0.047709 0.000000
0.112320 0.124849 0.000000
0.285252 0.024867 0.000000
0.187293 0.040362 0.000000
0.168217 0.076304 0.000000
0.051860 0.266278 0.000000
0.207344 0.023310 0.000000
0.054553 0.164182 0.000000
0.109275 0.021173 0.000000
0.088454 0.035261 0.000000
0.120973 0.161067 0.000000
0.067587 0.054956 0.000000
0.056479 0.195021 0.000000
0.067654 0.023486 0.000000
0.060669 0.209169 0.000000
0.109863 0.046119 0.000000
0.050000 -0.075000 0.000000
0.050000 -0.050000 0.000000
0.050000 -0.025000 0.000000
0.050000 0.000000 0.000000
0.122936 0.212617 0.000000
0.068297 0.137024 0.000000
0.050268 0.251199 0.000000
0.022999 0.025328 0.000000
0.022606 0.153583 0.000000
0.429885 0.052984 0.000000
0.155458 0.122041 0.000000
0.571101 0.039896 0.000000
0.116836 0.178615 0.000000
0.203496 0.182915 0.000000
0.092251 0.100752 0.000000
0.206986 0.116912 0.000000
0.020480 0.286836 0.000000
0.135787 0.194238 0.000000
0.072094 0.079738 0.000000
0.022491 0.065224 0.000000
0.184963 0.106911 0.000000
0.202114 0.094046 0.000000
0.080278 0.310109 0.000000
0.052335 0.074596 0.000000
0.075000 -0.075000 0.000000
0.075000 -0.050000 0.000000
0.075000 -0.025000 0.000000
0.075000 0.000000 0.000000
0.097344 0.158098 0.000000
0.157298 0.096469 0.000000
0.374503 0.034575 0.000000
0.311543 0.024109 0.000000
0.410437 0.107477 0.000000
0.657642 0.023807 0.000000
0.663206 0.046661 0.000000
0.047887 0.131640 0.000000
0.352813 0.122835 0.000000
0.640027 0.068111 0.000000
0.418818 0.023616 0.000000
0.087632 0.125211 0.000000
0.187767 0.065690 0.000000
0.187516 0.130884 0.000000
0.233707 0.080834 0.000000
0.040646 0.097087 0.000000
0.137412 0.102914 0.000000
0.036633 0.051480 0.000000
0.141963 0.067181 0.000000
0.122896 0.073922 0.000000
0.100000 -0.075000 0.000000
0.100000 -0.050000 0.000000
0.100000 -0.025000 0.000000
0.100000 0.000000 0.000000
0.461036 0.023116 0.000000
0.294283 0.149498 0.000000
0.478306 0.044096 0.000000
0.791911 0.022625 0.000000
0.211401 0.070893 0.000000
0.724503 0.022728 0.000000
0.613482 0.089688 0.000000
0.248671 0.043239 0.000000
0.680895 0.025953 0.000000
0.689402 0.056307 0.000000
0.443901 0.033865 0.000000
0.304204 0.134092 0.000000
0.531535 0.047688 0.000000
0.610187 0.026776 0.000000
0.081859 0.211257 0.000000
0.229250 0.026706 0.000000
0.522231 0.025700 0.000000
0.249371 0.068737 0.000000
0.322511 0.081866 0.000000
0.191135 0.163589 0.000000
0.125000 -0.075000 0.000000
0.125000 -0.050000 0.000000
0.125000 -0.025000 0.000000
0.125000 0.000000 0.000000
0.706376 0.076516 0.000000
0.672477 0.110462 0.000000
0.986232 0.057586 0.000000
0.827453 0.025072 0.000000
0.544024 0.061380 0.000000
0.578204 0.021765 0.000000
0.176533 0.178647 0.000000
0.470403 0.067924 0.000000
0.767750 0.076959 0.000000
0.739373 0.057054 0.000000
0.862892 0.044951 0.000000
0.496889 0.072651 0.000000
0.492796 0.023360 0.000000
0.459703 0.111421 0.000000
0.396514 0.026335 0.000000
0.422311 0.121957 0.000000
0.280491 0.147569 0.000000
0.111520 0.089498 0.000000
0.455898 0.087318 0.000000
0.036957 0.166101 0.000000
0.150000 -0.075000 0.000000
0.150000 -0.050000 0.000000
0.150000 -0.025000 0.000000
0.150000 0.000000 0.000000
0.210517 0.148867 0.000000
0.962791 0.034615 0.000000
0.739599 0.099008 0.000000
0.269743 0.055096 0.000000
0.881867 0.028695 0.000000
0.163345 0.051092 0.000000
0.919944 0.039540 0.000000
0.412587 0.073276 0.000000
0.938102 0.048062 0.000000
0.528919 0.090849 0.000000
0.898945 0.110851 0.000000
0.702268 0.033164 0.000000
0.828570 0.065561 0.000000
0.807790 0.061595 0.000000
0.767133 0.025778 0.000000
0.619641 0.045201 0.000000
0.633121 0.027246 0.000000
0.651880 0.076542 0.000000
0.676667 0.078921 0.000000
0.233808 0.122981 0.000000
0.175000 -0.075000 0.000000
0.175000 -0.050000 0.000000
0.175000 -0.025000 0.000000
0.175000 0.000000 0.000000
0.080077 0.163703 0.000000
0.611446 0.103448 0.000000
0.888219 0.055632 0.000000
0.816199 0.100997 0.000000
0.989789 0.018854 0.000000
0.147520 0.266701 0.000000
0.852889 0.023532 0.000000
0.323085 0.049776 0.000000
0.358840 0.021998 0.000000
0.904080 0.022800 0.000000
0.519462 0.079936 0.000000
0.741302 0.078231 0.000000
0.382323 0.092441 0.000000
0.941169 0.020784 0.000000
0.973312 0.049480 0.000000
0.403596 0.049757 0.000000
1.006879 0.043347 0.000000
0.475482 0.108901 0.000000
0.153212 0.178377 0.000000
0.398675 0.132169 0.000000
0.200000 -0.075000 0.000000
0.200000 -0.050000 0.000000
0.200000 -0.025000 0.000000
0.200000 0.000000 0.000000
0.340631 0.089004 0.000000
0.090071 0.062927 0.000000
0.273298 0.101540 0.000000
0.799929 0.042101 0.000000
0.343787 0.056943 0.000000
0.268006 0.118684 0.000000
0.595495 0.050103 0.000000
0.945237 0.073722 0.000000
0.388304 0.124000 0.000000
0.019357 0.201549 0.000000
0.784154 0.073249 0.000000
0.695794 0.088826 0.000000
0.045493 0.028292 0.000000
0.448881 0.064409 0.000000
0.573494 0.064010 0.000000
0.083396 0.263694 0.000000
0.718747 0.051786 0.000000
0.356013 0.136915 0.000000
0.875716 0.061286 0.000000
0.718478 0.116190 0.000000
0.225000 -0.075000 0.000000
0.225000 -0.050000 0.000000
0.225000 -0.025000 0.000000
0.225000 0.000000 0.000000
0.276808 0.076210 0.000000
0.833674 0.045569 0.000000
0.565245 0.076029 0.000000
0.153242 0.199305 0.000000
0.024248 0.247816 0.000000
0.098575 0.215810 0.000000
0.422011 0.090185 0.000000
0.920728 0.066534 0.000000
0.610213 0.074368 0.000000
0.084970 0.190031 0.000000
0.659816 0.105556 0.000000
0.098139 0.409256 0.000000
0.335608 0.030614 0.000000
0.386397 0.067713 0.000000
0.071287 0.108395 0.000000
0.216770 0.177323 0.000000
0.500132 0.044381 0.000000
0.023836 0.100894 0.000000
0.240711 0.100595 0.000000
0.296416 0.047069 0.000000
0.250000 -0.075000 0.000000
0.250000 -0.050000 0.000000
0.250000 -0.025000 0.000000
0.250000 0.000000 0.000000
0.747642 0.028666 0.000000
0.328382 0.127476 0.000000
0.252918 0.137330 0.000000
0.297830 0.098177 0.000000
0.261198 0.022665 0.000000
0.362980 0.091607 0.000000
0.148180 0.149720 0.000000
0.258230 0.194470 0.000000
0.250268 0.176518 0.000000
0.487458 0.096486 0.000000
0.235130 0.143963 0.000000
0.041328 0.281208 0.000000
0.129083 0.129700 0.000000
0.543967 0.024650 0.000000
0.364331 0.066982 0.000000
0.301374 0.071397 0.000000
0.314868 0.113576 0.000000
0.769272 0.054690 0.000000
0.027220 0.127111 0.000000
0.510252 0.112937 0.000000
0.275000 -0.075000 0.000000
0.275000 -0.050000 0.000000
0.275000 -0.025000 0.000000
0.275000 0.000000 0.000000
0.300000 -0.075000 0.000000
0.300000 -0.050000 0.000000
0.300000 -0.025000 0.000000
0.300000 0.000000 0.000000
0.325000 -0.075000 0.000000
0.325000 -0.050000 0.000000
0.325000 -0.025000 0.000000
0.325000 0.000000 0.000000
0.350000 -0.075000 0.000000
0.350000 -0.050000 0.000000
0.350000 -0.025000 0.000000
0.350000 0.000000 0.000000
0.375000 -0.075000 0.000000
0.375000 -0.050000 0.000000
0.375000 -0.025000 0.000000
0.375000 0.000000 0.000000
0.400000 -0.075000 0.000000
0.400000 -0.050000 0.000000
0.400000 -0.025000 0.000000
0.400000 0.000000 0.000000
0.425000 -0.075000 0.000000
0.425000 -0.050000 0.000000
0.425000 -0.025000 0.000000
0.425000 0.000000 0.000000
0.450000 -0.075000 0.000000
0.450000 -0.050000 0.000000
0.450000 -0.025000 0.000000
0.450000 0.000000 0.000000
0.475000 -0.075000 0.000000
0.475000 -0.050000 0.000000
0.475000 -0.025000 0.000000
0.475000 0.000000 0.000000
0.500000 -0.075000 0.000000
0.500000 -0.050000 0.000000
0.500000 -0.025000 0.000000
0.500000 0.000000 0.000000
0.525000 -0.075000 0.000000
0.525000 -0.050000 0.000000
0.525000 -0.025000 0.000000
0.525000 0.000000 0.000000
0.550000 -0.075000 0.000000
0.550000 -0.050000 0.000000
0.550000 -0.025000 0.000000
0.550000 0.000000 0.000000
0.575000 -0.075000 0.000000
0.575000 -0.050000 0.000000
0.575000 -0.025000 0.000000
0.575000 0.000000 0.000000
0.600000 -0.075000 0.000000
0.600000 -0.050000 0.000000
0.600000 -0.025000 0.000000
0.600000 0.000000 0.000000
0.625000 -0.075000 0.000000
0.625000 -0.050000 0.000000
0.625000 -0.025000 0.000000
0.625000 0.000000 0.000000
0.650000 -0.075000 0.000000
0.650000 -0.050000 0.000000
0.650000 -0.025000 0.000000
0.650000 0.000000 0.000000
0.675000 -0.075000 0.000000
0.675000 -0.050000 0.000000
0.675000 -0.025000 0.000000
0.675000 0.000000 0.000000
0.700000 -0.075000 0.000000
0.700000 -0.050000 0.000000
0.700000 -0.025000 0.000000
0.700000 0.000000 0.000000
0.725000 -0.075000 0.000000
0.725000 -0.050000 0.000000
0.725000 -0.025000 0.000000
0.725000 0.000000 0.000000
0.750000 -0.075000 0.000000
0.750000 -0.050000 0.000000
0.750000 -0.025000 0.000000
0.750000 0.000000 0.000000
0.775000 -0.075000 0.000000
0.775000 -0.050000 0.000000
0.775000 -0.025000 0.000000
0.775000 0.000000 0.000000
0.800000 -0.075000 0.000000
0.800000 -0.050000 0.000000
0.800000 -0.025000 0.000000
0.800000 0.000000 0.000000
0.825000 -0.075000 0.000000
0.825000 -0.050000 0.000000
0.825000 -0.025000 0.000000
0.825000 0.000000 0.000000
0.850000 -0.075000 0.000000
0.850000 -0.050000 0.000000
0.850000 -0.025000 0.000000
0.850000 0.000000 0.000000
0.875000 -0.075000 0.000000
0.875000 -0.050000 0.000000
0.875000 -0.025000 0.000000
0.875000 0.000000 0.000000
0.900000 -0.075000 0.000000
0.900000 -0.050000 0.000000
0.900000 -0.025000 0.000000
0.900000 0.000000 0.000000
0.925000 -0.075000 0.000000
0.925000 -0.050000 0.000000
0.925000 -0.025000 0.000000
0.925000 0.000000 0.000000
0.950000 -0.075000 0.000000
0.950000 -0.050000 0.000000
0.950000 -0.025000 0.000000
0.950000 0.000000 0.000000
0.975000 -0.075000 0.000000
0.975000 -0.050000 0.000000
0.975000 -0.025000 0.000000
0.975000 0.000000 0.000000
1.000000 -0.075000 0.000000
1.000000 -0.050000 0.000000
1.000000 -0.025000 0.000000
1.000000 0.000000 0.000000
1.025000 -0.075000 0.000000
1.025000 -0.050000 0.000000
1.025000 -0.025000 0.000000
1.025000 0.000000 0.000000
1.025000 0.025000 0.000000
1.025000 0.050000 0.000000
1.025000 0.075000 0.000000
1.025000 0.100000 0.000000
1.025000 0.125000 0.000000
1.025000 0.150000 0.000000
1.025000 0.175000 0.000000
1.025000 0.200000 0.000000
1.025000 0.225000 0.000000
1.025000 0.250000 0.000000
1.025000 0.275000 0.000000
1.025000 0.300000 0.000000
1.025000 0.325000 0.000000
1.025000 0.350000 0.000000
1.025000 0.375000 0.000000
1.025000 0.400000 0.000000
1.025000 0.425000 0.000000
1.025000 0.450000 0.000000
1.025000 0.475000 0.000000
1.025000 0.500000 0.000000
1.025000 0.525000 0.000000
1.025000 0.550000 0.000000
1.025000 0.575000 0.000000
1.025000 0.600000 0.000000
1.050000 -0.075000 0.000000
1.050000 -0.050000 0.000000
1.050000 -0.025000 0.000000
1.050000 0.000000 0.000000
1.050000 0.025000 0.000000
1.050000 0.050000 0.000000
1.050000 0.075000 0.000000
1.050000 0.100000 0.000000
1.050000 0.125000 0.000000
1.050000 0.150000 0.000000
1.050000 0.175000 0.000000
1.050000 0.200000 0.000000
1.050000 0.225000 0.000000
1.050000 0.250000 0.000000
1.050000 0.275000 0.000000
1.050000 0.300000 0.000000
1.050000 0.325000 0.000000
1.050000 0.350000 0.000000
1.050000 0.375000 0.000000
1.050000 0.400000 0.000000
1.050000 0.425000 0.000000
1.050000 0.450000 0.000000
1.050000 0.475000 0.000000
1.050000 0.500000 0.000000
1.050000 0.525000 0.000000
1.050000 0.550000 0.000000
1.050000 0.575000 0.000000
1.050000 0.600000 0.000000
1.075000 -0.075000 0.000000
1.075000 -0.050000 0.000000
1.075000 -0.025000 0.000000
1.075000 0.000000 0.000000
1.075000 0.025000 0.000000
1.075000 0.050000 0.000000
1.075000 0.075000 0.000000
1.075000 0.100000 0.000000
1.075000 0.125000 0.000000
1.075000 0.150000 0.000000
1.075000 0.175000 0.000000
1.075000 0.200000 0.000000
1.075000 0.225000 0.000000
1.075000 0.250000 0.000000
1.075000 0.275000 0.000000
1.075000 0.300000 0.000000
1.075000 0.325000 0.000000
1.075000 0.350000 0.000000
1.075000 0.375000 0.000000
1.075000 0.400000 0.000000
1.075000 0.425000 0.000000
1.075000 0.450000 0.000000
1.075000 0.475000 0.000000
1.075000 0.500000 0.000000
1.075000 0.525000 0.000000
1.075000 0.550000 0.000000
1.075000 0.575000 0.000000
1.075000 0.600000 0.000000
1.100000 -0.075000 0.000000
1.100000 -0.050000 0.000000
1.100000 -0.025000 0.000000
1.100000 0.000000 0.000000
1.100000 0.025000 0.000000
1.100000 0.050000 0.000000
1.100000 0.075000 0.000000
1.100000 0.100000 0.000000
1.100000 0.125000 0.000000
1.100000 0.150000 0.000000
1.100000 0.175000 0.000000
1.100000 0.200000 0.000000
1.100000 0.225000 0.000000
1.100000 0.250000 0.000000
1.100000 0.275000 0.000000
1.100000 0.300000 0.000000
1.100000 0.325000 0.000000
1.100000 0.350000 0.000000
1.100000 0.375000 0.000000
1.100000 0.400000 0.000000
1.100000 0.425000 0.000000
1.100000 0.450000 0.000000
1.100000 0.475000 0.000000
1.100000 0.500000 0.000000
1.100000 0.525000 0.000000
1.100000 0.550000 0.000000
1.100000 0.575000 0.000000
1.100000 0.600000 0.000000
</DataArray>
</Points>
<PointData>
<DataArray NumberOfComponents='1' type='Int32' Name='ParticleType' format='ascii'>
3
3
3
3
3
3
3
3
3
3
3
3
3
3
3
3
3
3
3
3
3
3
3
3
3
3
2
2
3
3
3
3
3
3
3
3
3
3
3
3
3
3
3
3
3
3
3
3
3
3
3
3
3
3
2
2
3
3
2
2
2
2
2
2
2
2
2
2
2
2
2
2
2
2
2
2
2
2
2
2
2
2
2
2
3
3
2
2
2
2
2
2
2
2
2
2
2
2
2
2
2
2
2
2
2
2
2
2
2
2
2
2
3
3
2
2
0
0
0
0
0
0
0
0
0
0
0
0
0
0
0
0
0
0
0
0
3
3
2
2
0
0
0
0
0
0
0
0
0
0
0
0
0
0
0
0
0
0
0
0
3
3
2
2
0
0
0
0
0
0
0
0
0
0
0
0
0
0
0
0
0
0
0
0
3
3
2
2
0
0
0
0
0
0
0
0
0
0
0
0
0
0
0
0
0
0
0
0
3
3
2
2
0
0
0
0
0
0
0
0
0
0
0
0
0
0
0
0
0
0
0
0
3
3
2
2
0
0
0
0
0
0
0
0
0
0
0
0
0
0
0
0
0
0
0
0
3
3
2
2
0
0
0
0
0
0
0
0
0
0
0
0
0
0
0
0
0
0
0
0
3
3
2
2
0
0
0
0
0
0
0
0
0
0
0
0
0
0
0
0
0
0
0
0
3
3
2
2
0
0
0
0
0
0
0
0
0
0
0
0
0
0
0
0
0
0
0
0
3
3
2
2
0
0
0
0
0
0
0
0
0
0
0
0
0
0
0
0
0
0
0
0
3
3
2
2
3
3
2
2
3
3
2
2
3
3
2
2
3
3
2
2
3
3
2
2
3
3
2
2
3
3
2
2
3
3
2
2
3
3
2
2
3
3
2
2
3
3
2
2
3
3
2
2
3
3
2
2
3
3
2
2
3
3
2
2
3
3
2
2
3
3
2
2
3
3
2
2
3
3
2
2
3
3
2
2
3
3
2
2
3
3
2
2
3
3
2
2
3
3
2
2
3
3
2
2
3
3
2
2
3
3
2
2
3
3
2
2
3
3
2
2
3
3
2
2
2
2
2
2
2
2
2
2
2
2
2
2
2
2
2
2
2
2
2
2
2
2
2
2
3
3
2
2
2
2
2
2
2
2
2
2
2
2
2
2
2
2
2
2
2
2
2
2
2
2
2
2
3
3
3
3
3
3
3
3
3
3
3
3
3
3
3
3
3
3
3
3
3
3
3
3
3
3
2
2
3
3
3
3
3
3
3
3
3
3
3
3
3
3
3
3
3
3
3
3
3
3
3
3
3
3
2
2
</DataArray>
<DataArray NumberOfComponents='1' type='Float32' Name='Velocity' format='ascii'>
0.000000
0.000000
0.000000
0.000000
0.000000
0.000000
0.000000
0.000000
0.000000
0.000000
0.000000
0.000000
0.000000
0.000000
0.000000
0.000000
0.000000
0.000000
0.000000
0.000000
0.000000
0.000000
0.000000
0.000000
0.000000
0.000000
0.000000
0.000000
0.000000
0.000000
0.000000
0.000000
0.000000
0.000000
0.000000
0.000000
0.000000
0.000000
0.000000
0.000000
0.000000
0.000000
0.000000
0.000000
0.000000
0.000000
0.000000
0.000000
0.000000
0.000000
0.000000
0.000000
0.000000
0.000000
0.000000
0.000000
0.000000
0.000000
0.000000
0.000000
0.000000
0.000000
0.000000
0.000000
0.000000
0.000000
0.000000
0.000000
0.000000
0.000000
0.000000
0.000000
0.000000
0.000000
0.000000
0.000000
0.000000
0.000000
0.000000
0.000000
0.000000
0.000000
0.000000
0.000000
0.000000
0.000000
0.000000
0.000000
0.000000
0.000000
0.000000
0.000000
0.000000
0.000000
0.000000
0.000000
0.000000
0.000000
0.000000
0.000000
0.000000
0.000000
0.000000
0.000000
0.000000
0.000000
0.000000
0.000000
0.000000
0.000000
0.000000
0.000000
0.000000
0.000000
0.000000
0.000000
0.438686
0.276365
0.409133
0.132874
0.127890
0.045221
0.186729
0.193025
0.424826
0.224630
0.169675
0.469628
0.111430
0.470316
0.309114
0.479327
0.328470
0.221748
0.493350
0.593000
0.000000
0.000000
0.000000
0.000000
0.206342
0.148801
0.135428
0.197513
0.136635
0.270965
0.251000
0.318728
0.479734
0.543642
0.263925
0.106592
0.395061
0.469120
0.006114
0.181325
0.437951
0.371726
0.477419
0.261210
0.000000
0.000000
0.000000
0.000000
0.335090
0.295880
0.226635
0.296801
0.829104
0.106464
0.599344
0.108964
0.982265
0.498618
0.234141
0.102697
0.242718
0.404629
0.087860
0.111145
0.086029
0.322762
0.136615
0.118169
0.000000
0.000000
0.000000
0.000000
0.087495
0.740153
0.397767
0.253997
0.182704
0.295034
0.592602
0.096586
0.489476
0.520605
0.301076
0.566854
0.235523
0.089819
0.739510
0.134201
0.150673
0.189851
0.468619
0.632466
0.000000
0.000000
0.000000
0.000000
0.405288
0.858873
0.313004
0.300830
0.359481
0.207272
0.727093
0.578346
0.413928
0.500916
0.248101
0.993256
0.108343
0.742519
0.199234
0.975225
0.899510
0.070107
0.794409
0.388057
0.000000
0.000000
0.000000
0.000000
0.675975
0.123754
0.576888
0.054679
0.089916
0.552955
0.111012
0.088359
0.122182
0.897118
0.247850
0.272713
0.125433
0.179869
0.291310
0.237123
0.195177
0.431341
0.110839
0.752689
0.000000
0.000000
0.000000
0.000000
0.268730
0.653440
0.388939
0.459202
0.191230
0.417075
0.216862
0.223738
0.131875
0.042192
0.782150
0.349924
0.653184
0.125537
0.096185
0.138141
0.302427
0.525389
1.038857
0.622781
0.000000
0.000000
0.000000
0.000000
0.381763
0.402535
0.465872
0.120178
0.280702
0.446329
0.379167
0.183631
0.485727
0.626514
0.329765
0.424618
0.188710
0.355133
0.550844
0.348119
0.526880
0.544073
0.120797
0.255471
0.000000
0.000000
0.000000
0.000000
0.087190
0.368360
0.475114
1.064572
0.510274
0.951594
0.333198
0.352978
0.617440
0.248766
1.032339
0.531189
0.072780
0.225595
0.246899
0.402656
0.185952
0.219171
0.267432
0.076175
0.000000
0.000000
0.000000
0.000000
0.427847
0.454786
0.671044
0.308883
0.239842
0.678750
0.296537
0.497342
0.530566
0.651574
0.302437
0.607864
0.121455
0.291992
0.304956
0.342377
0.686067
0.204121
0.264727
0.753631
0.000000
0.000000
0.000000
0.000000
0.000000
0.000000
0.000000
0.000000
0.000000
0.000000
0.000000
0.000000
0.000000
0.000000
0.000000
0.000000
0.000000
0.000000
0.000000
0.000000
0.000000
0.000000
0.000000
0.000000
0.000000
0.000000
0.000000
0.000000
0.000000
0.000000
0.000000
0.000000
0.000000
0.000000
0.000000
0.000000
0.000000
0.000000
0.000000
0.000000
0.000000
0.000000
0.000000
0.000000
0.000000
0.000000
0.000000
0.000000
0.000000
0.000000
0.000000
0.000000
0.000000
0.000000
0.000000
0.000000
0.000000
0.000000
0.000000
0.000000
0.000000
0.000000
0.000000
0.000000
0.000000
0.000000
0.000000
0.000000
0.000000
0.000000
0.000000
0.000000
0.000000
0.000000
0.000000
0.000000
0.000000
0.000000
0.000000
0.000000
0.000000
0.000000
0.000000
0.000000
0.000000
0.000000
0.000000
0.000000
0.000000
0.000000
0.000000
0.000000
0.000000
0.000000
0.000000
0.000000
0.000000
0.000000
0.000000
0.000000
0.000000
0.000000
0.000000
0.000000
0.000000
0.000000
0.000000
0.000000
0.000000
0.000000
0.000000
0.000000
0.000000
0.000000
0.000000
0.000000
0.000000
0.000000
0.000000
0.000000
0.000000
0.000000
0.000000
0.000000
0.000000
0.000000
0.000000
0.000000
0.000000
0.000000
0.000000
0.000000
0.000000
0.000000
0.000000
0.000000
0.000000
0.000000
0.000000
0.000000
0.000000
0.000000
0.000000
0.000000
0.000000
0.000000
0.000000
0.000000
0.000000
0.000000
0.000000
0.000000
0.000000
0.000000
0.000000
0.000000
0.000000
0.000000
0.000000
0.000000
0.000000
0.000000
0.000000
0.000000
0.000000
0.000000
0.000000
0.000000
0.000000
0.000000
0.000000
0.000000
0.000000
0.000000
0.000000
0.000000
0.000000
0.000000
0.000000
0.000000
0.000000
0.000000
0.000000
0.000000
0.000000
0.000000
0.000000
0.000000
0.000000
0.000000
0.000000
0.000000
0.000000
0.000000
0.000000
0.000000
0.000000
0.000000
0.000000
0.000000
0.000000
0.000000
0.000000
0.000000
0.000000
0.000000
0.000000
0.000000
0.000000
0.000000
0.000000
0.000000
0.000000
0.000000
0.000000
0.000000
0.000000
0.000000
0.000000
0.000000
0.000000
0.000000
0.000000
0.000000
0.000000
0.000000
0.000000
0.000000
0.000000
0.000000
0.000000
0.000000
</DataArray>
<DataArray NumberOfComponents='1' type='Float32' Name='pressure' format='ascii'>
0.000000
0.000000
0.000000
0.000000
0.000000
0.000000
0.000000
0.000000
0.000000
0.000000
0.000000
0.000000
0.000000
0.000000
0.000000
0.000000
0.000000
0.000000
0.000000
0.000000
0.000000
0.000000
0.000000
0.000000
0.000000
0.000000
0.000000
0.000000
0.000000
0.000000
0.000000
0.000000
0.000000
0.000000
0.000000
0.000000
0.000000
0.000000
0.000000
0.000000
0.000000
0.000000
0.000000
0.000000
0.000000
0.000000
0.000000
0.000000
0.000000
0.000000
0.000000
0.000000
0.000000
0.000000
0.000000
0.000000
0.000000
0.000000
2740.627441
2676.886230
2874.661621
1451.292480
1318.976929
999.321899
0.000000
1279.056885
285.178345
2811.839600
695.257080
877.111572
1611.005005
1183.717896
0.000000
0.000000
0.000000
0.000000
0.000000
0.000000
0.000000
0.000000
0.000000
0.000000
0.000000
0.000000
0.000000
0.000000
2631.319092
3173.517090
3251.629883
0.000000
0.000000
734.527222
0.000000
247.090515
0.000000
0.000000
0.000000
0.000000
0.000000
0.000000
0.000000
0.000000
0.000000
0.000000
0.000000
0.000000
0.000000
0.000000
0.000000
0.000000
0.000000
0.000000
0.000000
0.000000
2292.840576
2543.248047
1372.352051
508.084229
3557.480957
1863.494751
0.000000
1019.342163
1810.290649
1586.429321
1579.269653
0.000000
1719.601318
0.000000
3245.370117
2310.605957
0.000000
1584.636353
0.000000
2010.480591
0.000000
2631.028076
0.000000
0.000000
1792.579346
1412.369629
0.000000
1604.431885
0.000000
2586.485840
722.964172
3096.370117
0.000000
3166.659180
1421.878906
0.000000
1856.709961
0.000000
0.000000
1743.305298
2520.253174
1089.101318
798.126892
0.000000
0.000000
1974.375244
0.000000
0.000000
2787.854736
2251.196045
0.000000
1545.302490
0.000000
2025.245605
894.117310
2312.476807
0.000000
1225.334106
0.000000
897.892090
1674.729492
2127.012451
2386.668945
0.000000
1958.492920
734.848572
937.073364
1352.544067
1256.166504
1951.029053
0.000000
0.000000
3650.329590
2566.916260
3368.941406
0.000000
970.288208
411.686920
257.724579
641.203369
98.368317
1783.257690
1140.591309
0.000000
2066.380371
0.000000
1616.601196
2940.635254
0.000000
1159.121704
2092.376221
1538.954712
455.706299
1342.467407
0.000000
0.000000
2939.796387
1453.205566
694.722046
0.000000
0.000000
157.221756
0.000000
881.217346
0.000000
2828.554932
0.000000
699.333252
0.000000
0.000000
2636.509033
0.000000
2468.404541
0.000000
0.000000
1389.240967
0.000000
556.240601
0.000000
0.000000
2472.678955
2456.037842
0.000000
348.297852
0.000000
1573.448242
117.750298
0.000000
12.615911
1157.544922
0.000000
0.000000
0.000000
1477.655884
0.000000
0.000000
707.076782
2153.494629
1305.391113
1560.422729
340.447510
802.327332
0.000000
0.000000
1634.801514
508.285187
467.356934
0.000000
0.000000
0.000000
0.000000
0.000000
697.845093
2426.476074
2690.376953
0.000000
544.687927
0.000000
0.000000
45.240437
94.620865
1411.295776
0.000000
0.000000
588.257751
0.000000
0.000000
0.000000
2033.436157
1118.110596
0.000000
1309.831665
575.674500
721.232849
855.598022
919.210876
0.000000
0.000000
0.000000
0.000000
0.000000
0.000000
2755.587402
1440.475464
1315.644653
0.000000
0.000000
0.000000
0.000000
0.000000
0.000000
0.000000
1649.972778
1674.758301
1412.122070
0.000000
0.000000
0.000000
0.000000
0.000000
0.000000
0.000000
0.000000
0.000000
0.000000
0.000000
1429.819092
1351.236694
173.734314
0.000000
0.000000
2068.132324
0.000000
1103.748047
0.000000
0.000000
2621.114014
2322.816895
1001.175537
0.000000
0.000000
0.000000
1817.339722
0.000000
0.000000
0.000000
0.000000
734.437195
0.000000
0.000000
2144.880127
280.545746
1555.659424
1593.742798
1974.908936
0.000000
1250.092651
0.000000
0.000000
0.000000
3069.159424
2990.207764
0.000000
0.000000
2311.931152
2799.537842
0.000000
0.000000
1760.088867
567.618774
0.000000
0.000000
2712.281250
2377.824463
0.000000
0.000000
1964.701172
1513.463135
0.000000
0.000000
1369.906738
1654.580566
0.000000
0.000000
1956.034058
1246.144165
0.000000
0.000000
1937.836670
407.531128
0.000000
0.000000
2217.976807
1619.619751
0.000000
0.000000
2425.399170
2300.312500
0.000000
0.000000
1755.227539
2356.353271
0.000000
0.000000
1758.698730
1645.640381
0.000000
0.000000
2384.623291
2206.012939
0.000000
0.000000
264.186584
0.000000
0.000000
0.000000
0.000000
0.000000
0.000000
0.000000
996.533936
2129.260742
0.000000
0.000000
613.562195
966.113220
0.000000
0.000000
0.000000
0.000000
0.000000
0.000000
1585.649902
1158.363037
0.000000
0.000000
255.410599
1419.843994
0.000000
0.000000
1121.452148
1812.963257
0.000000
0.000000
1242.078613
326.457977
0.000000
0.000000
273.272949
0.000000
0.000000
0.000000
463.924591
865.039429
0.000000
0.000000
0.000000
0.000000
0.000000
0.000000
793.140564
108.708336
0.000000
0.000000
1087.044556
0.000000
0.000000
0.000000
1943.449585
0.000000
0.000000
0.000000
2201.601807
0.000000
0.000000
0.000000
2656.031006
701.685364
0.000000
0.000000
750.768188
0.000000
0.000000
790.650391
0.000000
0.000000
0.000000
0.000000
0.000000
0.000000
0.000000
0.000000
0.000000
0.000000
0.000000
0.000000
0.000000
0.000000
0.000000
0.000000
0.000000
0.000000
0.000000
0.000000
0.000000
0.000000
0.000000
0.000000
679.407776
610.684875
1736.087891
2920.759766
0.000000
0.000000
0.000000
0.000000
0.000000
0.000000
0.000000
0.000000
0.000000
0.000000
0.000000
0.000000
0.000000
0.000000
0.000000
0.000000
0.000000
0.000000
0.000000
0.000000
0.000000
0.000000
0.000000
0.000000
0.000000
0.000000
0.000000
0.000000
0.000000
0.000000
0.000000
0.000000
0.000000
0.000000
0.000000
0.000000
0.000000
0.000000
0.000000
0.000000
0.000000
0.000000
0.000000
0.000000
0.000000
0.000000
0.000000
0.000000
0.000000
0.000000
0.000000
0.000000
0.000000
0.000000
0.000000
0.000000
0.000000
0.000000
0.000000
0.000000
0.000000
0.000000
0.000000
0.000000
0.000000
0.000000
0.000000
0.000000
0.000000
0.000000
0.000000
0.000000
0.000000
0.000000
0.000000
0.000000
0.000000
0.000000
</DataArray>
</PointData>
<Cells>
<DataArray type='Int32' Name='connectivity' format='ascii'>
0
1
2
3
4
5
6
7
8
9
10
11
12
13
14
15
16
17
18
19
20
21
22
23
24
25
26
27
28
29
30
31
32
33
34
35
36
37
38
39
40
41
42
43
44
45
46
47
48
49
50
51
52
53
54
55
56
57
58
59
60
61
62
63
64
65
66
67
68
69
70
71
72
73
74
75
76
77
78
79
80
81
82
83
84
85
86
87
88
89
90
91
92
93
94
95
96
97
98
99
100
101
102
103
104
105
106
107
108
109
110
111
112
113
114
115
116
117
118
119
120
121
122
123
124
125
126
127
128
129
130
131
132
133
134
135
136
137
138
139
140
141
142
143
144
145
146
147
148
149
150
151
152
153
154
155
156
157
158
159
160
161
162
163
164
165
166
167
168
169
170
171
172
173
174
175
176
177
178
179
180
181
182
183
184
185
186
187
188
189
190
191
192
193
194
195
196
197
198
199
200
201
202
203
204
205
206
207
208
209
210
211
212
213
214
215
216
217
218
219
220
221
222
223
224
225
226
227
228
229
230
231
232
233
234
235
236
237
238
239
240
241
242
243
244
245
246
247
248
249
250
251
252
253
254
255
256
257
258
259
260
261
262
263
264
265
266
267
268
269
270
271
272
273
274
275
276
277
278
279
280
281
282
283
284
285
286
287
288
289
290
291
292
293
294
295
296
297
298
299
300
301