<?xml version='1.0' encoding='UTF-8'?>
<VTKFile xmlns='VTK' byte_order='LittleEndian' version='0.1' type='UnstructuredGrid'>
<UnstructuredGrid>
<Piece NumberOfCells='584' NumberOfPoints='584'>
<Points>
<DataArray NumberOfComponents='3' type='Float32' Name='Position' format='ascii'>
-0.075000 -0.075000 0.000000
-0.075000 -0.050000 0.000000
-0.075000 -0.025000 0.000000
-0.075000 0.000000 0.000000
-0.075000 0.025000 0.000000
-0.075000 0.050000 0.000000
-0.075000 0.075000 0.000000
-0.075000 0.100000 0.000000
-0.075000 0.125000 0.000000
-0.075000 0.150000 0.000000
-0.075000 0.175000 0.000000
-0.075000 0.200000 0.000000
-0.075000 0.225000 0.000000
-0.075000 0.250000 0.000000
-0.075000 0.275000 0.000000
-0.075000 0.300000 0.000000
-0.075000 0.325000 0.000000
-0.075000 0.350000 0.000000
-0.075000 0.375000 0.000000
-0.075000 0.400000 0.000000
-0.075000 0.425000 0.000000
-0.075000 0.450000 0.000000
-0.075000 0.475000 0.000000
-0.075000 0.500000 0.000000
-0.075000 0.525000 0.000000
-0.075000 0.550000 0.000000
-0.075000 0.575000 0.000000
-0.075000 0.600000 0.000000
-0.050000 -0.075000 0.000000
-0.050000 -0.050000 0.000000
-0.050000 -0.025000 0.000000
-0.050000 0.000000 0.000000
-0.050000 0.025000 0.000000
-0.050000 0.050000 0.000000
-0.050000 0.075000 0.000000
-0.050000 0.100000 0.000000
-0.050000 0.125000 0.000000
-0.050000 0.150000 0.000000
-0.050000 0.175000 0.000000
-0.050000 0.200000 0.000000
-0.050000 0.225000 0.000000
-0.050000 0.250000 0.000000
-0.050000 0.275000 0.000000
-0.050000 0.300000 0.000000
-0.050000 0.325000 0.000000
-0.050000 0.350000 0.000000
-0.050000 0.375000 0.000000
-0.050000 0.400000 0.000000
-0.050000 0.425000 0.000000
-0.050000 0.450000 0.000000
-0.050000 0.475000 0.000000
-0.050000 0.500000 0.000000
-0.050000 0.525000 0.000000
-0.050000 0.550000 0.000000
-0.050000 0.575000 0.000000
-0.050000 0.600000 0.000000
-0.025000 -0.075000 0.000000
-0.025000 -0.050000 0.000000
-0.025000 -0.025000 0.000000
-0.025000 0.000000 0.000000
-0.025000 0.025000 0.000000
-0.025000 0.050000 0.000000
-0.025000 0.075000 0.000000
-0.025000 0.100000 0.000000
-0.025000 0.125000 0.000000
-0.025000 0.150000 0.000000
-0.025000 0.175000 0.000000
-0.025000 0.200000 0.000000
-0.025000 0.225000 0.000000
-0.025000 0.250000 0.000000
-0.025000 0.275000 0.000000
-0.025000 0.300000 0.000000
-0.025000 0.325000 0.000000
-0.025000 0.350000 0.000000
-0.025000 0.375000 0.000000
-0.025000 0.400000 0.000000
-0.025000 0.425000 0.000000
-0.025000 0.450000 0.000000
-0.025000 0.475000 0.000000
-0.025000 0.500000 0.000000
-0.025000 0.525000 0.000000
-0.025000 0.550000 0.000000
-0.025000 0.575000 0.000000
-0.025000 0.600000 0.000000
0.000000 -0.075000 0.000000
0.000000 -0.050000 0.000000
0.000000 -0.025000 0.000000
0.000000 0.000000 0.000000
0.000000 0.025000 0.000000
0.000000 0.050000 0.000000
0.000000 0.075000 0.000000
0.000000 0.100000 0.000000
0.000000 0.125000 0.000000
0.000000 0.150000 0.000000
0.000000 0.175000 0.000000
0.000000 0.200000 0.000000
0.000000 0.225000 0.000000
0.000000 0.250000 0.000000
0.000000 0.275000 0.000000
0.000000 0.300000 0.000000
0.000000 0.325000 0.000000
0.000000 0.350000 0.000000
0.000000 0.375000 0.000000
0.000000 0.400000 0.000000
0.000000 0.425000 0.000000
0.000000 0.450000 0.000000
0.000000 0.475000 0.000000
0.000000 0.500000 0.000000
0.000000 0.525000 0.000000
0.000000 0.550000 0.000000
0.000000 0.575000 0.000000
0.000000 0.600000 0.000000
0.025000 -0.075000 0.000000
0.025000 -0.050000 0.000000
0.025000 -0.025000 0.000000
0.025000 0.000000 0.000000
0.177001 0.047854 0.000000
0.150819 0.164542 0.000000
0.162832 0.026086 0.000000
0.187032 0.026156 0.000000
0.213243 0.047689 0.000000
0.118081 0.103516 0.000000
0.288698 0.023549 0.000000
0.200360 0.067809 0.000000
0.168453 0.094282 0.000000
0.116053 0.231950 0.000000
0.210546 0.024363 0.000000
0.090162 0.142055 0.000000
0.138941 0.023691 0.000000
0.108688 0.022744 0.000000
0.131560 0.144706 0.000000
0.065862 0.053294 0.000000
0.032886 0.188176 0.000000
0.072653 0.025716 0.000000
0.022478 0.155093 0.000000
0.155960 0.056121 0.000000
0.050000 -0.075000 0.000000
0.050000 -0.050000 0.000000
0.050000 -0.025000 0.000000
0.050000 0.000000 0.000000
0.106118 0.209878 0.000000
0.061080 0.136284 0.000000
0.064516 0.195986 0.000000
0.026609 0.023850 0.000000
0.025401 0.121509 0.000000
0.420761 0.062459 0.000000
0.180071 0.133135 0.000000
0.563927 0.022905 0.000000
0.090549 0.175202 0.000000
0.190625 0.208145 0.000000
0.095469 0.094321 0.000000
0.210275 0.120502 0.000000
0.030177 0.238191 0.000000
0.157674 0.243728 0.000000
0.105325 0.059872 0.000000
0.025561 0.047380 0.000000
0.190270 0.110534 0.000000
0.226899 0.105510 0.000000
0.101744 0.250247 0.000000
0.088699 0.071545 0.000000
0.075000 -0.075000 0.000000
0.075000 -0.050000 0.000000
0.075000 -0.025000 0.000000
0.075000 0.000000 0.000000
0.103295 0.124914 0.000000
0.151918 0.118107 0.000000
0.376221 0.060428 0.000000
0.316668 0.024291 0.000000
0.376972 0.090117 0.000000
0.626309 0.057840 0.000000
0.608023 0.080168 0.000000
0.048587 0.115460 0.000000
0.289569 0.125267 0.000000
0.576609 0.068385 0.000000
0.405521 0.026098 0.000000
0.081469 0.115846 0.000000
0.206189 0.091106 0.000000
0.199048 0.145718 0.000000
0.248850 0.079782 0.000000
0.048404 0.090580 0.000000
0.137298 0.103353 0.000000
0.050408 0.064080 0.000000
0.145050 0.078713 0.000000
0.127863 0.042970 0.000000
0.100000 -0.075000 0.000000
0.100000 -0.050000 0.000000
0.100000 -0.025000 0.000000
0.100000 0.000000 0.000000
0.470337 0.030009 0.000000
0.270471 0.158609 0.000000
0.483437 0.057285 0.000000
0.779912 0.029039 0.000000
0.226512 0.072032 0.000000
0.703049 0.027473 0.000000
0.563070 0.088430 0.000000
0.238013 0.050316 0.000000
0.657451 0.022543 0.000000
0.659571 0.045586 0.000000
0.437272 0.020003 0.000000
0.290257 0.154958 0.000000
0.500969 0.058909 0.000000
0.610931 0.035152 0.000000
0.056408 0.222344 0.000000
0.239522 0.026177 0.000000
0.512148 0.029159 0.000000
0.262281 0.064643 0.000000
0.301646 0.095756 0.000000
0.153192 0.198666 0.000000
0.125000 -0.075000 0.000000
0.125000 -0.050000 0.000000
0.125000 -0.025000 0.000000
0.125000 0.000000 0.000000
0.684300 0.057022 0.000000
0.643812 0.061726 0.000000
0.983982 0.056039 0.000000
0.829305 0.022364 0.000000
0.527681 0.071005 0.000000
0.591798 0.024983 0.000000
0.127186 0.212408 0.000000
0.437790 0.041044 0.000000
0.753565 0.071029 0.000000
0.721276 0.061830 0.000000
0.840592 0.056855 0.000000
0.455699 0.049678 0.000000
0.491177 0.023026 0.000000
0.388356 0.142451 0.000000
0.382930 0.024214 0.000000
0.372791 0.124533 0.000000
0.225028 0.166726 0.000000
0.127137 0.066935 0.000000
0.404141 0.133168 0.000000
0.069186 0.156534 0.000000
0.150000 -0.075000 0.000000
0.150000 -0.050000 0.000000
0.150000 -0.025000 0.000000
0.150000 0.000000 0.000000
0.169002 0.175641 0.000000
0.963460 0.020978 0.000000
0.673450 0.083333 0.000000
0.277491 0.045951 0.000000
0.879931 0.022499 0.000000
0.176049 0.075491 0.000000
0.906270 0.045892 0.000000
0.416706 0.083616 0.000000
0.939820 0.050665 0.000000
0.485331 0.102126 0.000000
0.923405 0.061390 0.000000
0.682544 0.027390 0.000000
0.828086 0.075078 0.000000
0.803883 0.066788 0.000000
0.751004 0.026996 0.000000
0.600110 0.059986 0.000000
0.628051 0.023488 0.000000
0.624385 0.107003 0.000000
0.661579 0.077601 0.000000
0.232171 0.147006 0.000000
0.175000 -0.075000 0.000000
0.175000 -0.050000 0.000000
0.175000 -0.025000 0.000000
0.175000 0.000000 0.000000
0.114264 0.148905 0.000000
0.530174 0.097431 0.000000
0.884970 0.045727 0.000000
0.775929 0.077657 0.000000
0.996347 0.023662 0.000000
0.171915 0.204077 0.000000
0.853042 0.026783 0.000000
0.335759 0.041468 0.000000
0.365011 0.038984 0.000000
0.913732 0.020362 0.000000
0.461447 0.073054 0.000000
0.736805 0.067454 0.000000
0.338934 0.095925 0.000000
0.938733 0.031087 0.000000
0.973685 0.044122 0.000000
0.401232 0.047135 0.000000
1.005097 0.046206 0.000000
0.442196 0.085526 0.000000
0.113221 0.184231 0.000000
0.364267 0.106311 0.000000
0.200000 -0.075000 0.000000
0.200000 -0.050000 0.000000
0.200000 -0.025000 0.000000
0.200000 0.000000 0.000000
0.320055 0.104334 0.000000
0.090625 0.037951 0.000000
0.258007 0.104872 0.000000
0.797347 0.023330 0.000000
0.334847 0.067355 0.000000
0.254225 0.152372 0.000000
0.570885 0.042745 0.000000
0.952710 0.070767 0.000000
0.338796 0.126278 0.000000
0.036332 0.145871 0.000000
0.787033 0.057400 0.000000
0.674298 0.116542 0.000000
0.050737 0.026239 0.000000
0.430100 0.106284 0.000000
0.537131 0.046915 0.000000
0.151947 0.229715 0.000000
0.707530 0.050157 0.000000
0.330685 0.146163 0.000000
0.853197 0.048333 0.000000
0.696406 0.093251 0.000000
0.225000 -0.075000 0.000000
0.225000 -0.050000 0.000000
0.225000 -0.025000 0.000000
0.225000 0.000000 0.000000
0.287937 0.070446 0.000000
0.813200 0.049832 0.000000
0.516385 0.094895 0.000000
0.199767 0.261500 0.000000
0.027075 0.203031 0.000000
0.090221 0.198900 0.000000
0.406518 0.113265 0.000000
0.889804 0.064136 0.000000
0.553051 0.062360 0.000000
0.063472 0.179181 0.000000
0.572920 0.097211 0.000000
0.151124 0.356005 0.000000
0.347183 0.024695 0.000000
0.395178 0.076095 0.000000
0.071329 0.090586 0.000000
0.200568 0.198674 0.000000
0.497820 0.085436 0.000000
0.023898 0.069087 0.000000
0.241956 0.121537 0.000000
0.302700 0.045470 0.000000
0.250000 -0.075000 0.000000
0.250000 -0.050000 0.000000
0.250000 -0.025000 0.000000
0.250000 0.000000 0.000000
0.731556 0.021785 0.000000
0.301225 0.167348 0.000000
0.217172 0.182622 0.000000
0.280811 0.095221 0.000000
0.260097 0.024163 0.000000
0.316461 0.139962 0.000000
0.133637 0.178849 0.000000
0.249334 0.195523 0.000000
0.236800 0.200939 0.000000
0.462194 0.097698 0.000000
0.190360 0.162462 0.000000
0.041935 0.227261 0.000000
0.158335 0.137494 0.000000
0.533555 0.026545 0.000000
0.356772 0.076898 0.000000
0.314100 0.068267 0.000000
0.269382 0.128172 0.000000
0.756461 0.048266 0.000000
0.025004 0.096282 0.000000
0.490633 0.137118 0.000000
0.275000 -0.075000 0.000000
0.275000 -0.050000 0.000000
0.275000 -0.025000 0.000000
0.275000 0.000000 0.000000
0.300000 -0.075000 0.000000
0.300000 -0.050000 0.000000
0.300000 -0.025000 0.000000
0.300000 0.000000 0.000000
0.325000 -0.075000 0.000000
0.325000 -0.050000 0.000000
0.325000 -0.025000 0.000000
0.325000 0.000000 0.000000
0.350000 -0.075000 0.000000
0.350000 -0.050000 0.000000
0.350000 -0.025000 0.000000
0.350000 0.000000 0.000000
0.375000 -0.075000 0.000000
0.375000 -0.050000 0.000000
0.375000 -0.025000 0.000000
0.375000 0.000000 0.000000
0.400000 -0.075000 0.000000
0.400000 -0.050000 0.000000
0.400000 -0.025000 0.000000
0.400000 0.000000 0.000000
0.425000 -0.075000 0.000000
0.425000 -0.050000 0.000000
0.425000 -0.025000 0.000000
0.425000 0.000000 0.000000
0.450000 -0.075000 0.000000
0.450000 -0.050000 0.000000
0.450000 -0.025000 0.000000
0.450000 0.000000 0.000000
0.475000 -0.075000 0.000000
0.475000 -0.050000 0.000000
0.475000 -0.025000 0.000000
0.475000 0.000000 0.000000
0.500000 -0.075000 0.000000
0.500000 -0.050000 0.000000
0.500000 -0.025000 0.000000
0.500000 0.000000 0.000000
0.525000 -0.075000 0.000000
0.525000 -0.050000 0.000000
0.525000 -0.025000 0.000000
0.525000 0.000000 0.000000
0.550000 -0.075000 0.000000
0.550000 -0.050000 0.000000
0.550000 -0.025000 0.000000
0.550000 0.000000 0.000000
0.575000 -0.075000 0.000000
0.575000 -0.050000 0.000000
0.575000 -0.025000 0.000000
0.575000 0.000000 0.000000
0.600000 -0.075000 0.000000
0.600000 -0.050000 0.000000
0.600000 -0.025000 0.000000
0.600000 0.000000 0.000000
0.625000 -0.075000 0.000000
0.625000 -0.050000 0.000000
0.625000 -0.025000 0.000000
0.625000 0.000000 0.000000
0.650000 -0.075000 0.000000
0.650000 -0.050000 0.000000
0.650000 -0.025000 0.000000
0.650000 0.000000 0.000000
0.675000 -0.075000 0.000000
0.675000 -0.050000 0.000000
0.675000 -0.025000 0.000000
0.675000 0.000000 0.000000
0.700000 -0.075000 0.000000
0.700000 -0.050000 0.000000
0.700000 -0.025000 0.000000
0.700000 0.000000 0.000000
0.725000 -0.075000 0.000000
0.725000 -0.050000 0.000000
0.725000 -0.025000 0.000000
0.725000 0.000000 0.000000
0.750000 -0.075000 0.000000
0.750000 -0.050000 0.000000
0.750000 -0.025000 0.000000
0.750000 0.000000 0.000000
0.775000 -0.075000 0.000000
0.775000 -0.050000 0.000000
0.775000 -0.025000 0.000000
0.775000 0.000000 0.000000
0.800000 -0.075000 0.000000
0.800000 -0.050000 0.000000
0.800000 -0.025000 0.000000
0.800000 0.000000 0.000000
0.825000 -0.075000 0.000000
0.825000 -0.050000 0.000000
0.825000 -0.025000 0.000000
0.825000 0.000000 0.000000
0.850000 -0.075000 0.000000
0.850000 -0.050000 0.000000
0.850000 -0.025000 0.000000
0.850000 0.000000 0.000000
0.875000 -0.075000 0.000000
0.875000 -0.050000 0.000000
0.875000 -0.025000 0.000000
0.875000 0.000000 0.000000
0.900000 -0.075000 0.000000
0.900000 -0.050000 0.000000
0.900000 -0.025000 0.000000
0.900000 0.000000 0.000000
0.925000 -0.075000 0.000000
0.925000 -0.050000 0.000000
0.925000 -0.025000 0.000000
0.925000 0.000000 0.000000
0.950000 -0.075000 0.000000
0.950000 -0.050000 0.000000
0.950000 -0.025000 0.000000
0.950000 0.000000 0.000000
0.975000 -0.075000 0.000000
0.975000 -0.050000 0.000000
0.975000 -0.025000 0.000000
0.975000 0.000000 0.000000
1.000000 -0.075000 0.000000
1.000000 -0.050000 0.000000
1.000000 -0.025000 0.000000
1.000000 0.000000 0.000000
1.025000 -0.075000 0.000000
1.025000 -0.050000 0.000000
1.025000 -0.025000 0.000000
1.025000 0.000000 0.000000
1.025000 0.025000 0.000000
1.025000 0.050000 0.000000
1.025000 0.075000 0.000000
1.025000 0.100000 0.000000
1.025000 0.125000 0.000000
1.025000 0.150000 0.000000
1.025000 0.175000 0.000000
1.025000 0.200000 0.000000
1.025000 0.225000 0.000000
1.025000 0.250000 0.000000
1.025000 0.275000 0.000000
1.025000 0.300000 0.000000
1.025000 0.325000 0.000000
1.025000 0.350000 0.000000
1.025000 0.375000 0.000000
1.025000 0.400000 0.000000
1.025000 0.425000 0.000000
1.025000 0.450000 0.000000
1.025000 0.475000 0.000000
1.025000 0.500000 0.000000
1.025000 0.525000 0.000000
1.025000 0.550000 0.000000
1.025000 0.575000 0.000000
1.025000 0.600000 0.000000
1.050000 -0.075000 0.000000
1.050000 -0.050000 0.000000
1.050000 -0.025000 0.000000
1.050000 0.000000 0.000000
1.050000 0.025000 0.000000
1.050000 0.050000 0.000000
1.050000 0.075000 0.000000
1.050000 0.100000 0.000000
1.050000 0.125000 0.000000
1.050000 0.150000 0.000000
1.050000 0.175000 0.000000
1.050000 0.200000 0.000000
1.050000 0.225000 0.000000
1.050000 0.250000 0.000000
1.050000 0.275000 0.000000
1.050000 0.300000 0.000000
1.050000 0.325000 0.000000
1.050000 0.350000 0.000000
1.050000 0.375000 0.000000
1.050000 0.400000 0.000000
1.050000 0.425000 0.000000
1.050000 0.450000 0.000000
1.050000 0.475000 0.000000
1.050000 0.500000 0.000000
1.050000 0.525000 0.000000
1.050000 0.550000 0.000000
1.050000 0.575000 0.000000
1.050000 0.600000 0.000000
1.075000 -0.075000 0.000000
1.075000 -0.050000 0.000000
1.075000 -0.025000 0.000000
1.075000 0.000000 0.000000
1.075000 0.025000 0.000000
1.075000 0.050000 0.000000
1.075000 0.075000 0.000000
1.075000 0.100000 0.000000
1.075000 0.125000 0.000000
1.075000 0.150000 0.000000
1.075000 0.175000 0.000000
1.075000 0.200000 0.000000
1.075000 0.225000 0.000000
1.075000 0.250000 0.000000
1.075000 0.275000 0.000000
1.075000 0.300000 0.000000
1.075000 0.325000 0.000000
1.075000 0.350000 0.000000
1.075000 0.375000 0.000000
1.075000 0.400000 0.000000
1.075000 0.425000 0.000000
1.075000 0.450000 0.000000
1.075000 0.475000 0.000000
1.075000 0.500000 0.000000
1.075000 0.525000 0.000000
1.075000 0.550000 0.000000
1.075000 0.575000 0.000000
1.075000 0.600000 0.000000
1.100000 -0.075000 0.000000
1.100000 -0.050000 0.000000
1.100000 -0.025000 0.000000
1.100000 0.000000 0.000000
1.100000 0.025000 0.000000
1.100000 0.050000 0.000000
1.100000 0.075000 0.000000
1.100000 0.100000 0.000000
1.100000 0.125000 0.000000
1.100000 0.150000 0.000000
1.100000 0.175000 0.000000
1.100000 0.200000 0.000000
1.100000 0.225000 0.000000
1.100000 0.250000 0.000000
1.100000 0.275000 0.000000
1.100000 0.300000 0.000000
1.100000 0.325000 0.000000
1.100000 0.350000 0.000000
1.100000 0.375000 0.000000
1.100000 0.400000 0.000000
1.100000 0.425000 0.000000
1.100000 0.450000 0.000000
1.100000 0.475000 0.000000
1.100000 0.500000 0.000000
1.100000 0.525000 0.000000
1.100000 0.550000 0.000000
1.100000 0.575000 0.000000
1.100000 0.600000 0.000000
</DataArray>
</Points>
<PointData>
<DataArray NumberOfComponents='1' type='Int32' Name='ParticleType' format='ascii'>
3
3
3
3
3
3
3
3
3
3
3
3
3
3
3
3
3
3
3
3
3
3
3
3
3
3
2
2
3
3
3
3
3
3
3
3
3
3
3
3
3
3
3
3
3
3
3
3
3
3
3
3
3
3
2
2
3
3
2
2
2
2
2
2
2
2
2
2
2
2
2
2
2
2
2
2
2
2
2
2
2
2
2
2
3
3
2
2
2
2
2
2
2
2
2
2
2
2
2
2
2
2
2
2
2
2
2
2
2
2
2
2
3
3
2
2
0
0
0
0
0
0
0
0
0
0
0
0
0
0
0
0
0
0
0
0
3
3
2
2
0
0
0
0
0
0
0
0
0
0
0
0
0
0
0
0
0
0
0
0
3
3
2
2
0
0
0
0
0
0
0
0
0
0
0
0
0
0
0
0
0
0
0
0
3
3
2
2
0
0
0
0
0
0
0
0
0
0
0
0
0
0
0
0
0
0
0
0
3
3
2
2
0
0
0
0
0
0
0
0
0
0
0
0
0
0
0
0
0
0
0
0
3
3
2
2
0
0
0
0
0
0
0
0
0
0
0
0
0
0
0
0
0
0
0
0
3
3
2
2
0
0
0
0
0
0
0
0
0
0
0
0
0
0
0
0
0
0
0
0
3
3
2
2
0
0
0
0
0
0
0
0
0
0
0
0
0
0
0
0
0
0
0
0
3
3
2
2
0
0
0
0
0
0
0
0
0
0
0
0
0
0
0
0
0
0
0
0
3
3
2
2
0
0
0
0
0
0
0
0
0
0
0
0
0
0
0
0
0
0
0
0
3
3
2
2
3
3
2
2
3
3
2
2
3
3
2
2
3
3
2
2
3
3
2
2
3
3
2
2
3
3
2
2
3
3
2
2
3
3
2
2
3
3
2
2
3
3
2
2
3
3
2
2
3
3
2
2
3
3
2
2
3
3
2
2
3
3
2
2
3
3
2
2
3
3
2
2
3
3
2
2
3
3
2
2
3
3
2
2
3
3
2
2
3
3
2
2
3
3
2
2
3
3
2
2
3
3
2
2
3
3
2
2
3
3
2
2
3
3
2
2
3
3
2
2
2
2
2
2
2
2
2
2
2
2
2
2
2
2
2
2
2
2
2
2
2
2
2
2
3
3
2
2
2
2
2
2
2
2
2
2
2
2
2
2
2
2
2
2
2
2
2
2
2
2
2
2
3
3
3
3
3
3
3
3
3
3
3
3
3
3
3
3
3
3
3
3
3
3
3
3
3
3
2
2
3
3
3
3
3
3
3
3
3
3
3
3
3
3
3
3
3
3
3
3
3
3
3
3
3
3
2
2
</DataArray>
<DataArray NumberOfComponents='1' type='Float32' Name='Velocity' format='ascii'>
0.000000
0.000000
0.000000
0.000000
0.000000
0.000000
0.000000
0.000000
0.000000
0.000000
0.000000
0.000000
0.000000
0.000000
0.000000
0.000000
0.000000
0.000000
0.000000
0.000000
0.000000
0.000000
0.000000
0.000000
0.000000
0.000000
0.000000
0.000000
0.000000
0.000000
0.000000
0.000000
0.000000
0.000000
0.000000
0.000000
0.000000
0.000000
0.000000
0.000000
0.000000
0.000000
0.000000
0.000000
0.000000
0.000000
0.000000
0.000000
0.000000
0.000000
0.000000
0.000000
0.000000
0.000000
0.000000
0.000000
0.000000
0.000000
0.000000
0.000000
0.000000
0.000000
0.000000
0.000000
0.000000
0.000000
0.000000
0.000000
0.000000
0.000000
0.000000
0.000000
0.000000
0.000000
0.000000
0.000000
0.000000
0.000000
0.000000
0.000000
0.000000
0.000000
0.000000
0.000000
0.000000
0.000000
0.000000
0.000000
0.000000
0.000000
0.000000
0.000000
0.000000
0.000000
0.000000
0.000000
0.000000
0.000000
0.000000
0.000000
0.000000
0.000000
0.000000
0.000000
0.000000
0.000000
0.000000
0.000000
0.000000
0.000000
0.000000
0.000000
0.000000
0.000000
0.000000
0.000000
0.427553
0.191375
0.525882
0.190654
0.086193
0.367379
0.319311
0.433349
0.119374
0.527127
0.279359
0.405858
0.542131
0.265314
0.308947
0.234367
0.650579
0.209842
0.781371
0.533843
0.000000
0.000000
0.000000
0.000000
0.632936
0.134035
0.650872
0.249667
0.587334
0.140612
0.371897
0.203995
0.200841
0.380831
0.577030
0.233578
0.675125
0.903813
0.432659
0.235229
0.273075
0.208658
0.329010
0.298081
0.000000
0.000000
0.000000
0.000000
0.253344
0.228834
0.324824
0.308013
0.251413
0.669173
0.641562
0.036665
0.264667
0.530712
0.158217
0.176001
0.268306
0.603230
0.307927
0.212751
0.463757
0.186422
0.260551
0.337733
0.000000
0.000000
0.000000
0.000000
0.204119
0.692290
0.464045
0.158878
0.347541
0.155552
0.429390
0.168534
0.223625
0.173408
0.063721
0.033209
0.247582
0.213526
0.370132
0.372688
0.273849
0.322836
0.159924
0.643352
0.000000
0.000000
0.000000
0.000000
0.374053
0.219672
0.070948
0.116576
0.261707
0.203032
0.439700
0.131931
0.163408
0.061724
0.333113
0.178417
0.050947
0.718791
0.019664
0.191218
0.356475
0.221784
0.457304
0.450805
0.000000
0.000000
0.000000
0.000000
0.118917
0.122306
0.524119
0.137971
0.278103
0.278658
0.234535
0.603993
0.207808
0.157198
0.830950
0.290038
0.218637
0.290807
0.388161
0.384137
0.137673
0.220232
0.551044
0.401906
0.000000
0.000000
0.000000
0.000000
0.331228
0.396602
0.242641
0.439638
0.146811
0.558376
0.073969
0.218036
0.200308
0.118003
0.481906
0.201208
0.295582
0.129105
0.163726
0.123791
0.188251
0.413767
0.174289
0.350007
0.000000
0.000000
0.000000
0.000000
0.404092
0.344085
0.179799
0.180819
0.421493
0.515873
0.145497
0.440764
0.636442
0.374255
0.386976
0.378800
0.241141
0.366824
0.363833
1.616222
0.096300
0.064890
0.406962
0.379095
0.000000
0.000000
0.000000
0.000000
0.550409
0.117606
0.623667
0.498184
0.119083
0.888869
0.323593
0.247021
0.488605
0.345849
0.378344
1.147291
0.111291
0.239228
0.325245
0.490474
0.686504
0.435703
0.357890
0.323423
0.000000
0.000000
0.000000
0.000000
0.283730
0.264932
0.062507
0.159495
0.241881
0.614073
0.452514
0.401785
0.244000
0.284810
0.512679
0.749894
0.491533
0.075490
0.355627
0.176231
0.369344
0.145699
0.489410
0.310940
0.000000
0.000000
0.000000
0.000000
0.000000
0.000000
0.000000
0.000000
0.000000
0.000000
0.000000
0.000000
0.000000
0.000000
0.000000
0.000000
0.000000
0.000000
0.000000
0.000000
0.000000
0.000000
0.000000
0.000000
0.000000
0.000000
0.000000
0.000000
0.000000
0.000000
0.000000
0.000000
0.000000
0.000000
0.000000
0.000000
0.000000
0.000000
0.000000
0.000000
0.000000
0.000000
0.000000
0.000000
0.000000
0.000000
0.000000
0.000000
0.000000
0.000000
0.000000
0.000000
0.000000
0.000000
0.000000
0.000000
0.000000
0.000000
0.000000
0.000000
0.000000
0.000000
0.000000
0.000000
0.000000
0.000000
0.000000
0.000000
0.000000
0.000000
0.000000
0.000000
0.000000
0.000000
0.000000
0.000000
0.000000
0.000000
0.000000
0.000000
0.000000
0.000000
0.000000
0.000000
0.000000
0.000000
0.000000
0.000000
0.000000
0.000000
0.000000
0.000000
0.000000
0.000000
0.000000
0.000000
0.000000
0.000000
0.000000
0.000000
0.000000
0.000000
0.000000
0.000000
0.000000
0.000000
0.000000
0.000000
0.000000
0.000000
0.000000
0.000000
0.000000
0.000000
0.000000
0.000000
0.000000
0.000000
0.000000
0.000000
0.000000
0.000000
0.000000
0.000000
0.000000
0.000000
0.000000
0.000000
0.000000
0.000000
0.000000
0.000000
0.000000
0.000000
0.000000
0.000000
0.000000
0.000000
0.000000
0.000000
0.000000
0.000000
0.000000
0.000000
0.000000
0.000000
0.000000
0.000000
0.000000
0.000000
0.000000
0.000000
0.000000
0.000000
0.000000
0.000000
0.000000
0.000000
0.000000
0.000000
0.000000
0.000000
0.000000
0.000000
0.000000
0.000000
0.000000
0.000000
0.000000
0.000000
0.000000
0.000000
0.000000
0.000000
0.000000
0.000000
0.000000
0.000000
0.000000
0.000000
0.000000
0.000000
0.000000
0.000000
0.000000
0.000000
0.000000
0.000000
0.000000
0.000000
0.000000
0.000000
0.000000
0.000000
0.000000
0.000000
0.000000
0.000000
0.000000
0.000000
0.000000
0.000000
0.000000
0.000000
0.000000
0.000000
0.000000
0.000000
0.000000
0.000000
0.000000
0.000000
0.000000
0.000000
0.000000
0.000000
0.000000
0.000000
0.000000
0.000000
0.000000
0.000000
0.000000
0.000000
0.000000
0.000000
0.000000
0.000000
0.000000
0.000000
0.000000
0.000000
</DataArray>
<DataArray NumberOfComponents='1' type='Float32' Name='pressure' format='ascii'>
0.000000
0.000000
0.000000
0.000000
0.000000
0.000000
0.000000
0.000000
0.000000
0.000000
0.000000
0.000000
0.000000
0.000000
0.000000
0.000000
0.000000
0.000000
0.000000
0.000000
0.000000
0.000000
0.000000
0.000000
0.000000
0.000000
0.000000
0.000000
0.000000
0.000000
0.000000
0.000000
0.000000
0.000000
0.000000
0.000000
0.000000
0.000000
0.000000
0.000000
0.000000
0.000000
0.000000
0.000000
0.000000
0.000000
0.000000
0.000000
0.000000
0.000000
0.000000
0.000000
0.000000
0.000000
0.000000
0.000000
0.000000
0.000000
2249.452637
2146.857910
1579.905884
1848.026978
2026.104248
1252.058594
647.640625
1078.429443
0.000000
0.000000
0.000000
0.000000
0.000000
0.000000
0.000000
0.000000
0.000000
0.000000
0.000000
0.000000
0.000000
0.000000
0.000000
0.000000
0.000000
0.000000
0.000000
0.000000
2347.917480
2120.007812
1823.979980
2690.300781
2433.911133
897.388306
832.199341
340.134277
0.000000
0.000000
0.000000
0.000000
0.000000
0.000000
0.000000
0.000000
0.000000
0.000000
0.000000
0.000000
0.000000
0.000000
0.000000
0.000000
0.000000
0.000000
0.000000
0.000000
2691.239258
3403.937500
1350.970947
0.000000
1558.432617
2591.776855
1571.781128
141.716614
1947.564453
1630.064331
829.226807
0.000000
2070.770508
1584.915771
2894.094482
0.000000
0.000000
876.567139
0.000000
2765.609131
0.000000
1983.548828
0.000000
0.000000
1681.029541
1873.748535
1604.114746
0.000000
1027.708496
2758.654053
593.553711
0.000000
734.936707
1076.186768
264.291443
0.000000
142.021194
283.957092
0.000000
0.000000
2489.194580
2375.632812
866.864380
1443.956787
0.000000
2228.975098
0.000000
0.000000
1608.843750
1278.388062
2602.170410
962.565369
1530.604004
971.547913
1278.360718
0.000000
0.000000
0.000000
0.000000
0.000000
1427.356567
2326.602051
877.359863
190.803894
1301.700195
2028.393677
1324.532959
813.589539
1886.554443
1831.732910
0.000000
0.000000
2429.926270
1263.712646
0.000000
0.000000
1104.320923
0.000000
808.482666
732.684082
0.000000
1129.790649
517.588196
670.676880
2253.846436
576.416138
498.334290
2259.449707
0.000000
1962.887085
8.177657
2249.289551
1029.028320
0.000000
0.000000
0.000000
2620.061279
2650.319580
0.000000
77.645004
0.000000
0.000000
0.000000
249.825348
0.000000
1738.031250
0.000000
0.000000
0.000000
839.582214
1685.488159
0.000000
1652.577637
0.000000
1199.150513
1631.164185
0.000000
0.000000
0.000000
0.000000
2248.322266
2833.208496
0.000000
0.000000
0.000000
1952.021729
3.403038
1024.671021
593.524780
1326.068115
152.609619
0.000000
0.000000
625.161438
0.000000
0.000000
973.369080
0.000000
0.000000
0.000000
72.256866
0.000000
0.000000
0.000000
1255.831909
2754.139648
23.674294
0.000000
0.000000
0.000000
132.525452
575.963562
852.993164
1069.910522
815.473694
1480.590820
1202.848022
0.000000
422.604919
611.789368
191.000824
415.858795
0.000000
0.000000
1922.547119
788.537781
0.000000
0.000000
1579.561157
1669.183105
931.517761
1895.229492
0.000000
0.000000
1345.093140
0.000000
689.651367
0.000000
0.000000
0.000000
1177.963867
0.000000
1535.325317
0.000000
42.804138
0.000000
0.000000
0.000000
1007.358276
0.000000
0.000000
0.000000
1317.842896
1133.419189
316.864746
1152.491333
166.622269
0.000000
913.150085
860.756714
0.000000
0.000000
1752.156006
2040.886230
0.000000
0.000000
2342.995850
1603.482178
858.668884
536.357300
265.441315
2217.959961
765.778198
1491.354980
0.000000
0.000000
2043.758789
2622.358887
1004.424255
0.000000
633.437744
593.160767
1865.315918
0.000000
313.349823
0.000000
0.000000
0.000000
0.000000
1935.654297
818.587952
2055.033203
1385.770508
1585.307007
2292.286133
875.748718
1001.109863
0.000000
0.000000
0.000000
2345.459229
2943.758057
0.000000
0.000000
2155.906738
1620.318726
0.000000
0.000000
1749.086060
1439.780151
0.000000
0.000000
1676.607544
1612.005371
0.000000
0.000000
1624.159058
1119.967773
0.000000
0.000000
1440.562988
1345.421021
0.000000
0.000000
2954.992188
1969.579590
0.000000
0.000000
2599.125977
717.925720
0.000000
0.000000
815.802246
0.000000
0.000000
0.000000
1133.243164
2336.454102
0.000000
0.000000
0.000000
0.000000
0.000000
0.000000
459.011353
0.000000
0.000000
0.000000
986.582642
910.581604
0.000000
0.000000
927.529053
821.516907
0.000000
0.000000
1916.992188
2079.717285
0.000000
0.000000
1979.094971
2108.905273
0.000000
0.000000
753.960876
770.739563
0.000000
0.000000
3.588860
0.000000
0.000000
0.000000
1723.286011
2074.122803
0.000000
0.000000
640.448425
570.061462
0.000000
0.000000
0.000000
0.000000
0.000000
0.000000
1289.812256
1058.195312
0.000000
0.000000
2116.957764
1200.080811
0.000000
0.000000
1456.828125
1789.216064
0.000000
0.000000
2881.415039
1962.497314
0.000000
0.000000
3480.988525
2182.333740
0.000000
0.000000
3164.382080
1271.025513
0.000000
0.000000
2247.277344
0.000000
0.000000
0.000000
2049.598145
742.444641
0.000000
0.000000
1342.059814
179.981979
0.000000
0.000000
883.238403
487.662048
1109.945312
1996.571289
0.000000
0.000000
0.000000
0.000000
0.000000
0.000000
0.000000
0.000000
0.000000
0.000000
0.000000
0.000000
0.000000
0.000000
0.000000
0.000000
0.000000
0.000000
0.000000
0.000000
0.000000
0.000000
0.000000
0.000000
888.931824
970.901855
1276.063232
2741.918213
0.000000
0.000000
0.000000
0.000000
0.000000
0.000000
0.000000
0.000000
0.000000
0.000000
0.000000
0.000000
0.000000
0.000000
0.000000
0.000000
0.000000
0.000000
0.000000
0.000000
0.000000
0.000000
0.000000
0.000000
0.000000
0.000000
0.000000
0.000000
0.000000
0.000000
0.000000
0.000000
0.000000
0.000000
0.000000
0.000000
0.000000
0.000000
0.000000
0.000000
0.000000
0.000000
0.000000
0.000000
0.000000
0.000000
0.000000
0.000000
0.000000
0.000000
0.000000
0.000000
0.000000
0.000000
0.000000
0.000000
0.000000
0.000000
0.000000
0.000000
0.000000
0.000000
0.000000
0.000000
0.000000
0.000000
0.000000
0.000000
0.000000
0.000000
0.000000
0.000000
0.000000
0.000000
0.000000
0.000000
0.000000
0.000000
</DataArray>
</PointData>
<Cells>
<DataArray type='Int32' Name='connectivity' format='ascii'>
0
1
2
3
4
5
6
7
8
9
10
11
12
13
14
15
16
17
18
19
20
21
22
23
24
25
26
27
28
29
30
31
32
33
34
35
36
37
38
39
40
41
42
43
44
45
46
47
48
49
50
51
52
53
54
55
56
57
58
59
60
61
62
63
64
65
66
67
68
69
70
71
72
73
74
75
76
77
78
79
80
81
82
83
84
85
86
87
88
89
90
91
92
93
94
95
96
97
98
99
100
101
102
103
104
105
106
107
108
109
110
111
112
113
114
115
116
117
118
119
120
121
122
123
124
125
126
127
128
129
130
131
132
133
134
135
136
137
138
139
140
141
142
143
144
145
146
147
148
149
150
151
152
153
154
155
156
157
158
159
160
161
162
163
164
165
166
167
168
169
170
171
172
173
174
175
176
177
178
179
180
181
182
183
184
185
186
187
188
189
190
191
192
193
194
195
196
197
198
199
200
201
202
203
204
205
206
207
208
209
210
211
212
213
214
215
216
217
218
219
220
221
222
223
224
225
226
227
228
229
230
231
232
233
234
235
236
237
238
239
240
241
242
243
244
245
246
247
248
249
250
251
252
253
254
255
256
257
258
259
260
261
262
263
264
265
266
267
268
269
270
271
272
273
274
275
276
277
278
279
280
281
282
283
284
285
286
287
288
289
290
291
292
293