<?xml version='1.0' encoding='UTF-8'?>
<VTKFile xmlns='VTK' byte_order='LittleEndian' version='0.1' type='UnstructuredGrid'>
<UnstructuredGrid>
<Piece NumberOfCells='584' NumberOfPoints='584'>
<Points>
<DataArray NumberOfComponents='3' type='Float32' Name='Position' format='ascii'>
-0.075000 -0.075000 0.000000
-0.075000 -0.050000 0.000000
-0.075000 -0.025000 0.000000
-0.075000 0.000000 0.000000
-0.075000 0.025000 0.000000
-0.075000 0.050000 0.000000
-0.075000 0.075000 0.000000
-0.075000 0.100000 0.000000
-0.075000 0.125000 0.000000
-0.075000 0.150000 0.000000
-0.075000 0.175000 0.000000
-0.075000 0.200000 0.000000
-0.075000 0.225000 0.000000
-0.075000 0.250000 0.000000
-0.075000 0.275000 0.000000
-0.075000 0.300000 0.000000
-0.075000 0.325000 0.000000
-0.075000 0.350000 0.000000
-0.075000 0.375000 0.000000
-0.075000 0.400000 0.000000
-0.075000 0.425000 0.000000
-0.075000 0.450000 0.000000
-0.075000 0.475000 0.000000
-0.075000 0.500000 0.000000
-0.075000 0.525000 0.000000
-0.075000 0.550000 0.000000
-0.075000 0.575000 0.000000
-0.075000 0.600000 0.000000
-0.050000 -0.075000 0.000000
-0.050000 -0.050000 0.000000
-0.050000 -0.025000 0.000000
-0.050000 0.000000 0.000000
-0.050000 0.025000 0.000000
-0.050000 0.050000 0.000000
-0.050000 0.075000 0.000000
-0.050000 0.100000 0.000000
-0.050000 0.125000 0.000000
-0.050000 0.150000 0.000000
-0.050000 0.175000 0.000000
-0.050000 0.200000 0.000000
-0.050000 0.225000 0.000000
-0.050000 0.250000 0.000000
-0.050000 0.275000 0.000000
-0.050000 0.300000 0.000000
-0.050000 0.325000 0.000000
-0.050000 0.350000 0.000000
-0.050000 0.375000 0.000000
-0.050000 0.400000 0.000000
-0.050000 0.425000 0.000000
-0.050000 0.450000 0.000000
-0.050000 0.475000 0.000000
-0.050000 0.500000 0.000000
-0.050000 0.525000 0.000000
-0.050000 0.550000 0.000000
-0.050000 0.575000 0.000000
-0.050000 0.600000 0.000000
-0.025000 -0.075000 0.000000
-0.025000 -0.050000 0.000000
-0.025000 -0.025000 0.000000
-0.025000 0.000000 0.000000
-0.025000 0.025000 0.000000
-0.025000 0.050000 0.000000
-0.025000 0.075000 0.000000
-0.025000 0.100000 0.000000
-0.025000 0.125000 0.000000
-0.025000 0.150000 0.000000
-0.025000 0.175000 0.000000
-0.025000 0.200000 0.000000
-0.025000 0.225000 0.000000
-0.025000 0.250000 0.000000
-0.025000 0.275000 0.000000
-0.025000 0.300000 0.000000
-0.025000 0.325000 0.000000
-0.025000 0.350000 0.000000
-0.025000 0.375000 0.000000
-0.025000 0.400000 0.000000
-0.025000 0.425000 0.000000
-0.025000 0.450000 0.000000
-0.025000 0.475000 0.000000
-0.025000 0.500000 0.000000
-0.025000 0.525000 0.000000
-0.025000 0.550000 0.000000
-0.025000 0.575000 0.000000
-0.025000 0.600000 0.000000
0.000000 -0.075000 0.000000
0.000000 -0.050000 0.000000
0.000000 -0.025000 0.000000
0.000000 0.000000 0.000000
0.000000 0.025000 0.000000
0.000000 0.050000 0.000000
0.000000 0.075000 0.000000
0.000000 0.100000 0.000000
0.000000 0.125000 0.000000
0.000000 0.150000 0.000000
0.000000 0.175000 0.000000
0.000000 0.200000 0.000000
0.000000 0.225000 0.000000
0.000000 0.250000 0.000000
0.000000 0.275000 0.000000
0.000000 0.300000 0.000000
0.000000 0.325000 0.000000
0.000000 0.350000 0.000000
0.000000 0.375000 0.000000
0.000000 0.400000 0.000000
0.000000 0.425000 0.000000
0.000000 0.450000 0.000000
0.000000 0.475000 0.000000
0.000000 0.500000 0.000000
0.000000 0.525000 0.000000
0.000000 0.550000 0.000000
0.000000 0.575000 0.000000
0.000000 0.600000 0.000000
0.025000 -0.075000 0.000000
0.025000 -0.050000 0.000000
0.025000 -0.025000 0.000000
0.025000 0.000000 0.000000
0.093953 0.022578 0.000000
0.071949 0.027586 0.000000
0.056676 0.043431 0.000000
0.039933 0.021042 0.000000
0.103685 0.041222 0.000000
0.021476 0.034300 0.000000
0.120933 0.056680 0.000000
0.090707 0.061330 0.000000
0.075281 0.073753 0.000000
0.050279 0.060306 0.000000
0.083293 0.095206 0.000000
0.047505 0.086938 0.000000
0.022623 0.063853 0.000000
0.027795 0.086851 0.000000
0.021925 0.120746 0.000000
0.036071 0.139047 0.000000
0.050870 0.161584 0.000000
0.024984 0.161787 0.000000
0.037348 0.200827 0.000000
0.025981 0.184331 0.000000
0.050000 -0.075000 0.000000
0.050000 -0.050000 0.000000
0.050000 -0.025000 0.000000
0.050000 0.000000 0.000000
0.137170 0.018586 0.000000
0.134547 0.040478 0.000000
0.158747 0.044611 0.000000
0.228141 0.051820 0.000000
0.177636 0.069374 0.000000
0.178946 0.092419 0.000000
0.152955 0.067023 0.000000
0.210012 0.108877 0.000000
0.109588 0.082866 0.000000
0.135608 0.083485 0.000000
0.122856 0.100265 0.000000
0.139936 0.109122 0.000000
0.042216 0.110865 0.000000
0.111932 0.133610 0.000000
0.077434 0.110058 0.000000
0.081289 0.137064 0.000000
0.060772 0.129202 0.000000
0.074886 0.160342 0.000000
0.054377 0.185248 0.000000
0.073232 0.198624 0.000000
0.075000 -0.075000 0.000000
0.075000 -0.050000 0.000000
0.075000 -0.025000 0.000000
0.075000 0.000000 0.000000
0.185239 0.020209 0.000000
0.198448 0.064105 0.000000
0.224435 0.024235 0.000000
0.179181 0.040742 0.000000
0.254367 0.042668 0.000000
0.330196 0.040005 0.000000
0.318195 0.080539 0.000000
0.210644 0.082760 0.000000
0.263297 0.065672 0.000000
0.227915 0.129959 0.000000
0.229836 0.090327 0.000000
0.170995 0.108405 0.000000
0.153913 0.128303 0.000000
0.131401 0.140578 0.000000
0.099704 0.150147 0.000000
0.093626 0.181979 0.000000
0.117833 0.179852 0.000000
0.130866 0.194870 0.000000
0.154902 0.171699 0.000000
0.085977 0.199260 0.000000
0.100000 -0.075000 0.000000
0.100000 -0.050000 0.000000
0.100000 -0.025000 0.000000
0.100000 0.000000 0.000000
0.280136 0.030481 0.000000
0.259902 0.023394 0.000000
0.308420 0.042776 0.000000
0.377915 0.065284 0.000000
0.209451 0.034232 0.000000
0.370790 0.024412 0.000000
0.361947 0.047501 0.000000
0.344910 0.062413 0.000000
0.302486 0.064459 0.000000
0.328644 0.108334 0.000000
0.242912 0.073732 0.000000
0.281780 0.071093 0.000000
0.265845 0.099922 0.000000
0.251995 0.111759 0.000000
0.195742 0.121640 0.000000
0.129683 0.162515 0.000000
0.223735 0.151138 0.000000
0.183069 0.138648 0.000000
0.184298 0.185335 0.000000
0.165812 0.152333 0.000000
0.125000 -0.075000 0.000000
0.125000 -0.050000 0.000000
0.125000 -0.025000 0.000000
0.125000 0.000000 0.000000
0.442091 0.021860 0.000000
0.343897 0.022596 0.000000
0.555413 0.025360 0.000000
0.524517 0.021593 0.000000
0.535972 0.042271 0.000000
0.304554 0.022277 0.000000
0.400937 0.023008 0.000000
0.424745 0.038394 0.000000
0.403951 0.064471 0.000000
0.346473 0.085819 0.000000
0.393747 0.085015 0.000000
0.375043 0.092093 0.000000
0.300588 0.092864 0.000000
0.248737 0.164974 0.000000
0.233521 0.179084 0.000000
0.246643 0.133742 0.000000
0.322482 0.160558 0.000000
0.221384 0.171228 0.000000
0.272713 0.165443 0.000000
0.185329 0.165329 0.000000
0.150000 -0.075000 0.000000
0.150000 -0.050000 0.000000
0.150000 -0.025000 0.000000
0.150000 0.000000 0.000000
0.651642 0.032805 0.000000
0.581726 0.025413 0.000000
0.630667 0.053573 0.000000
0.574108 0.058309 0.000000
0.631513 0.023433 0.000000
0.663150 0.052174 0.000000
0.498926 0.041190 0.000000
0.600675 0.048951 0.000000
0.489954 0.023279 0.000000
0.512522 0.060264 0.000000
0.466618 0.030693 0.000000
0.392320 0.041506 0.000000
0.444999 0.048514 0.000000
0.444234 0.077185 0.000000
0.380668 0.120752 0.000000
0.310234 0.119266 0.000000
0.285458 0.114258 0.000000
0.308286 0.145016 0.000000
0.296040 0.156433 0.000000
0.283898 0.135153 0.000000
0.175000 -0.075000 0.000000
0.175000 -0.050000 0.000000
0.175000 -0.025000 0.000000
0.175000 0.000000 0.000000
0.829737 0.051451 0.000000
0.716861 0.022202 0.000000
0.799294 0.029799 0.000000
0.832336 0.020544 0.000000
0.782327 0.024571 0.000000
0.671430 0.021773 0.000000
0.756443 0.024098 0.000000
0.739283 0.042188 0.000000
0.653900 0.069435 0.000000
0.700710 0.029845 0.000000
0.555411 0.047488 0.000000
0.591334 0.078279 0.000000
0.475517 0.054806 0.000000
0.490602 0.110532 0.000000
0.427985 0.065396 0.000000
0.477393 0.073264 0.000000
0.424321 0.101892 0.000000
0.397690 0.137911 0.000000
0.359793 0.126721 0.000000
0.355217 0.106459 0.000000
0.200000 -0.075000 0.000000
0.200000 -0.050000 0.000000
0.200000 -0.025000 0.000000
0.200000 0.000000 0.000000
0.986170 0.148012 0.000000
0.907704 0.024491 0.000000
0.962331 0.099053 0.000000
0.867773 0.021433 0.000000
0.960114 0.018974 0.000000
0.928884 0.027418 0.000000
0.889240 0.038644 0.000000
0.851227 0.040675 0.000000
0.775387 0.060753 0.000000
0.771396 0.079670 0.000000
0.726927 0.068574 0.000000
0.603936 0.023778 0.000000
0.689237 0.072464 0.000000
0.614835 0.063759 0.000000
0.506443 0.095431 0.000000
0.559419 0.110644 0.000000
0.553377 0.090575 0.000000
0.462571 0.089931 0.000000
0.471490 0.105031 0.000000
0.418909 0.134725 0.000000
0.225000 -0.075000 0.000000
0.225000 -0.050000 0.000000
0.225000 -0.025000 0.000000
0.225000 0.000000 0.000000
1.006977 0.043540 0.000000
0.986605 0.251788 0.000000
0.990404 0.028579 0.000000
0.949047 0.115358 0.000000
0.974250 0.040284 0.000000
0.975412 0.133147 0.000000
0.977546 0.082406 0.000000
0.940964 0.044924 0.000000
0.913365 0.054765 0.000000
0.949137 0.067963 0.000000
0.873225 0.053190 0.000000
0.861606 0.070298 0.000000
0.851695 0.078597 0.000000
0.791075 0.067372 0.000000
0.716534 0.078626 0.000000
0.671928 0.082489 0.000000
0.653456 0.094556 0.000000
0.581613 0.092298 0.000000
0.518549 0.101630 0.000000
0.420677 0.113826 0.000000
0.250000 -0.075000 0.000000
0.250000 -0.050000 0.000000
0.250000 -0.025000 0.000000
0.250000 0.000000 0.000000
1.006121 0.308786 0.000000
0.980215 0.218018 0.000000
1.004395 0.111619 0.000000
0.995985 0.085531 0.000000
0.985368 0.281211 0.000000
0.999556 0.132880 0.000000
0.967077 0.222236 0.000000
1.008502 0.190967 0.000000
0.958419 0.140086 0.000000
0.968409 0.062758 0.000000
0.936842 0.094859 0.000000
0.920088 0.121987 0.000000
0.918455 0.079941 0.000000
0.904859 0.093415 0.000000
0.897681 0.072358 0.000000
0.816520 0.045941 0.000000
0.753041 0.050569 0.000000
0.701556 0.059374 0.000000
0.610258 0.093203 0.000000
0.540840 0.077782 0.000000
0.275000 -0.075000 0.000000
0.275000 -0.050000 0.000000
0.275000 -0.025000 0.000000
0.275000 0.000000 0.000000
0.300000 -0.075000 0.000000
0.300000 -0.050000 0.000000
0.300000 -0.025000 0.000000
0.300000 0.000000 0.000000
0.325000 -0.075000 0.000000
0.325000 -0.050000 0.000000
0.325000 -0.025000 0.000000
0.325000 0.000000 0.000000
0.350000 -0.075000 0.000000
0.350000 -0.050000 0.000000
0.350000 -0.025000 0.000000
0.350000 0.000000 0.000000
0.375000 -0.075000 0.000000
0.375000 -0.050000 0.000000
0.375000 -0.025000 0.000000
0.375000 0.000000 0.000000
0.400000 -0.075000 0.000000
0.400000 -0.050000 0.000000
0.400000 -0.025000 0.000000
0.400000 0.000000 0.000000
0.425000 -0.075000 0.000000
0.425000 -0.050000 0.000000
0.425000 -0.025000 0.000000
0.425000 0.000000 0.000000
0.450000 -0.075000 0.000000
0.450000 -0.050000 0.000000
0.450000 -0.025000 0.000000
0.450000 0.000000 0.000000
0.475000 -0.075000 0.000000
0.475000 -0.050000 0.000000
0.475000 -0.025000 0.000000
0.475000 0.000000 0.000000
0.500000 -0.075000 0.000000
0.500000 -0.050000 0.000000
0.500000 -0.025000 0.000000
0.500000 0.000000 0.000000
0.525000 -0.075000 0.000000
0.525000 -0.050000 0.000000
0.525000 -0.025000 0.000000
0.525000 0.000000 0.000000
0.550000 -0.075000 0.000000
0.550000 -0.050000 0.000000
0.550000 -0.025000 0.000000
0.550000 0.000000 0.000000
0.575000 -0.075000 0.000000
0.575000 -0.050000 0.000000
0.575000 -0.025000 0.000000
0.575000 0.000000 0.000000
0.600000 -0.075000 0.000000
0.600000 -0.050000 0.000000
0.600000 -0.025000 0.000000
0.600000 0.000000 0.000000
0.625000 -0.075000 0.000000
0.625000 -0.050000 0.000000
0.625000 -0.025000 0.000000
0.625000 0.000000 0.000000
0.650000 -0.075000 0.000000
0.650000 -0.050000 0.000000
0.650000 -0.025000 0.000000
0.650000 0.000000 0.000000
0.675000 -0.075000 0.000000
0.675000 -0.050000 0.000000
0.675000 -0.025000 0.000000
0.675000 0.000000 0.000000
0.700000 -0.075000 0.000000
0.700000 -0.050000 0.000000
0.700000 -0.025000 0.000000
0.700000 0.000000 0.000000
0.725000 -0.075000 0.000000
0.725000 -0.050000 0.000000
0.725000 -0.025000 0.000000
0.725000 0.000000 0.000000
0.750000 -0.075000 0.000000
0.750000 -0.050000 0.000000
0.750000 -0.025000 0.000000
0.750000 0.000000 0.000000
0.775000 -0.075000 0.000000
0.775000 -0.050000 0.000000
0.775000 -0.025000 0.000000
0.775000 0.000000 0.000000
0.800000 -0.075000 0.000000
0.800000 -0.050000 0.000000
0.800000 -0.025000 0.000000
0.800000 0.000000 0.000000
0.825000 -0.075000 0.000000
0.825000 -0.050000 0.000000
0.825000 -0.025000 0.000000
0.825000 0.000000 0.000000
0.850000 -0.075000 0.000000
0.850000 -0.050000 0.000000
0.850000 -0.025000 0.000000
0.850000 0.000000 0.000000
0.875000 -0.075000 0.000000
0.875000 -0.050000 0.000000
0.875000 -0.025000 0.000000
0.875000 0.000000 0.000000
0.900000 -0.075000 0.000000
0.900000 -0.050000 0.000000
0.900000 -0.025000 0.000000
0.900000 0.000000 0.000000
0.925000 -0.075000 0.000000
0.925000 -0.050000 0.000000
0.925000 -0.025000 0.000000
0.925000 0.000000 0.000000
0.950000 -0.075000 0.000000
0.950000 -0.050000 0.000000
0.950000 -0.025000 0.000000
0.950000 0.000000 0.000000
0.975000 -0.075000 0.000000
0.975000 -0.050000 0.000000
0.975000 -0.025000 0.000000
0.975000 0.000000 0.000000
1.000000 -0.075000 0.000000
1.000000 -0.050000 0.000000
1.000000 -0.025000 0.000000
1.000000 0.000000 0.000000
1.025000 -0.075000 0.000000
1.025000 -0.050000 0.000000
1.025000 -0.025000 0.000000
1.025000 0.000000 0.000000
1.025000 0.025000 0.000000
1.025000 0.050000 0.000000
1.025000 0.075000 0.000000
1.025000 0.100000 0.000000
1.025000 0.125000 0.000000
1.025000 0.150000 0.000000
1.025000 0.175000 0.000000
1.025000 0.200000 0.000000
1.025000 0.225000 0.000000
1.025000 0.250000 0.000000
1.025000 0.275000 0.000000
1.025000 0.300000 0.000000
1.025000 0.325000 0.000000
1.025000 0.350000 0.000000
1.025000 0.375000 0.000000
1.025000 0.400000 0.000000
1.025000 0.425000 0.000000
1.025000 0.450000 0.000000
1.025000 0.475000 0.000000
1.025000 0.500000 0.000000
1.025000 0.525000 0.000000
1.025000 0.550000 0.000000
1.025000 0.575000 0.000000
1.025000 0.600000 0.000000
1.050000 -0.075000 0.000000
1.050000 -0.050000 0.000000
1.050000 -0.025000 0.000000
1.050000 0.000000 0.000000
1.050000 0.025000 0.000000
1.050000 0.050000 0.000000
1.050000 0.075000 0.000000
1.050000 0.100000 0.000000
1.050000 0.125000 0.000000
1.050000 0.150000 0.000000
1.050000 0.175000 0.000000
1.050000 0.200000 0.000000
1.050000 0.225000 0.000000
1.050000 0.250000 0.000000
1.050000 0.275000 0.000000
1.050000 0.300000 0.000000
1.050000 0.325000 0.000000
1.050000 0.350000 0.000000
1.050000 0.375000 0.000000
1.050000 0.400000 0.000000
1.050000 0.425000 0.000000
1.050000 0.450000 0.000000
1.050000 0.475000 0.000000
1.050000 0.500000 0.000000
1.050000 0.525000 0.000000
1.050000 0.550000 0.000000
1.050000 0.575000 0.000000
1.050000 0.600000 0.000000
1.075000 -0.075000 0.000000
1.075000 -0.050000 0.000000
1.075000 -0.025000 0.000000
1.075000 0.000000 0.000000
1.075000 0.025000 0.000000
1.075000 0.050000 0.000000
1.075000 0.075000 0.000000
1.075000 0.100000 0.000000
1.075000 0.125000 0.000000
1.075000 0.150000 0.000000
1.075000 0.175000 0.000000
1.075000 0.200000 0.000000
1.075000 0.225000 0.000000
1.075000 0.250000 0.000000
1.075000 0.275000 0.000000
1.075000 0.300000 0.000000
1.075000 0.325000 0.000000
1.075000 0.350000 0.000000
1.075000 0.375000 0.000000
1.075000 0.400000 0.000000
1.075000 0.425000 0.000000
1.075000 0.450000 0.000000
1.075000 0.475000 0.000000
1.075000 0.500000 0.000000
1.075000 0.525000 0.000000
1.075000 0.550000 0.000000
1.075000 0.575000 0.000000
1.075000 0.600000 0.000000
1.100000 -0.075000 0.000000
1.100000 -0.050000 0.000000
1.100000 -0.025000 0.000000
1.100000 0.000000 0.000000
1.100000 0.025000 0.000000
1.100000 0.050000 0.000000
1.100000 0.075000 0.000000
1.100000 0.100000 0.000000
1.100000 0.125000 0.000000
1.100000 0.150000 0.000000
1.100000 0.175000 0.000000
1.100000 0.200000 0.000000
1.100000 0.225000 0.000000
1.100000 0.250000 0.000000
1.100000 0.275000 0.000000
1.100000 0.300000 0.000000
1.100000 0.325000 0.000000
1.100000 0.350000 0.000000
1.100000 0.375000 0.000000
1.100000 0.400000 0.000000
1.100000 0.425000 0.000000
1.100000 0.450000 0.000000
1.100000 0.475000 0.000000
1.100000 0.500000 0.000000
1.100000 0.525000 0.000000
1.100000 0.550000 0.000000
1.100000 0.575000 0.000000
1.100000 0.600000 0.000000
</DataArray>
</Points>
<PointData>
<DataArray NumberOfComponents='1' type='Int32' Name='ParticleType' format='ascii'>
3
3
3
3
3
3
3
3
3
3
3
3
3
3
3
3
3
3
3
3
3
3
3
3
3
3
2
2
3
3
3
3
3
3
3
3
3
3
3
3
3
3
3
3
3
3
3
3
3
3
3
3
3
3
2
2
3
3
2
2
2
2
2
2
2
2
2
2
2
2
2
2
2
2
2
2
2
2
2
2
2
2
2
2
3
3
2
2
2
2
2
2
2
2
2
2
2
2
2
2
2
2
2
2
2
2
2
2
2
2
2
2
3
3
2
2
0
0
0
0
0
0
0
0
0
0
0
0
0
0
0
0
0
0
0
0
3
3
2
2
0
0
0
0
0
0
0
0
0
0
0
0
0
0
0
0
0
0
0
0
3
3
2
2
0
0
0
0
0
0
0
0
0
0
0
0
0
0
0
0
0
0
0
0
3
3
2
2
0
0
0
0
0
0
0
0
0
0
0
0
0
0
0
0
0
0
0
0
3
3
2
2
0
0
0
0
0
0
0
0
0
0
0
0
0
0
0
0
0
0
0
0
3
3
2
2
0
0
0
0
0
0
0
0
0
0
0
0
0
0
0
0
0
0
0
0
3
3
2
2
0
0
0
0
0
0
0
0
0
0
0
0
0
0
0
0
0
0
0
0
3
3
2
2
0
0
0
0
0
0
0
0
0
0
0
0
0
0
0
0
0
0
0
0
3
3
2
2
0
0
0
0
0
0
0
0
0
0
0
0
0
0
0
0
0
0
0
0
3
3
2
2
0
0
0
0
0
0
0
0
0
0
0
0
0
0
0
0
0
0
0
0
3
3
2
2
3
3
2
2
3
3
2
2
3
3
2
2
3
3
2
2
3
3
2
2
3
3
2
2
3
3
2
2
3
3
2
2
3
3
2
2
3
3
2
2
3
3
2
2
3
3
2
2
3
3
2
2
3
3
2
2
3
3
2
2
3
3
2
2
3
3
2
2
3
3
2
2
3
3
2
2
3
3
2
2
3
3
2
2
3
3
2
2
3
3
2
2
3
3
2
2
3
3
2
2
3
3
2
2
3
3
2
2
3
3
2
2
3
3
2
2
3
3
2
2
2
2
2
2
2
2
2
2
2
2
2
2
2
2
2
2
2
2
2
2
2
2
2
2
3
3
2
2
2
2
2
2
2
2
2
2
2
2
2
2
2
2
2
2
2
2
2
2
2
2
2
2
3
3
3
3
3
3
3
3
3
3
3
3
3
3
3
3
3
3
3
3
3
3
3
3
3
3
2
2
3
3
3
3
3
3
3
3
3
3
3
3
3
3
3
3
3
3
3
3
3
3
3
3
3
3
2
2
</DataArray>
<DataArray NumberOfComponents='1' type='Float32' Name='Velocity' format='ascii'>
0.000000
0.000000
0.000000
0.000000
0.000000
0.000000
0.000000
0.000000
0.000000
0.000000
0.000000
0.000000
0.000000
0.000000
0.000000
0.000000
0.000000
0.000000
0.000000
0.000000
0.000000
0.000000
0.000000
0.000000
0.000000
0.000000
0.000000
0.000000
0.000000
0.000000
0.000000
0.000000
0.000000
0.000000
0.000000
0.000000
0.000000
0.000000
0.000000
0.000000
0.000000
0.000000
0.000000
0.000000
0.000000
0.000000
0.000000
0.000000
0.000000
0.000000
0.000000
0.000000
0.000000
0.000000
0.000000
0.000000
0.000000
0.000000
0.000000
0.000000
0.000000
0.000000
0.000000
0.000000
0.000000
0.000000
0.000000
0.000000
0.000000
0.000000
0.000000
0.000000
0.000000
0.000000
0.000000
0.000000
0.000000
0.000000
0.000000
0.000000
0.000000
0.000000
0.000000
0.000000
0.000000
0.000000
0.000000
0.000000
0.000000
0.000000
0.000000
0.000000
0.000000
0.000000
0.000000
0.000000
0.000000
0.000000
0.000000
0.000000
0.000000
0.000000
0.000000
0.000000
0.000000
0.000000
0.000000
0.000000
0.000000
0.000000
0.000000
0.000000
0.000000
0.000000
0.000000
0.000000
0.287851
0.548093
0.199297
0.335964
0.431082
0.295595
0.561301
0.483788
0.159958
0.293367
0.466930
0.274609
0.511845
0.561152
0.829121
0.749025
0.640498
0.693120
0.499922
1.000217
0.000000
0.000000
0.000000
0.000000
0.257017
0.399941
0.748259
0.871945
0.889360
0.739506
0.804213
0.923853
0.241202
0.596176
0.518550
0.629788
0.329988
0.554602
0.319700
0.538055
0.651781
0.338130
0.740377
0.694931
0.000000
0.000000
0.000000
0.000000
0.355307
0.724274
0.759183
0.432901
0.569921
1.035848
1.198280
0.922152
1.010239
1.142732
0.964837
0.666973
0.499923
0.347541
0.510417
0.471688
0.278255
0.913409
1.063128
0.532288
0.000000
0.000000
0.000000
0.000000
0.594544
0.692615
1.149657
1.210373
0.627938
1.217793
1.599750
0.973057
0.995441
0.902828
0.721616
1.188096
0.984830
0.768148
0.701676
0.389537
0.922318
1.184725
0.913634
0.743823
0.000000
0.000000
0.000000
0.000000
1.529872
0.823411
1.839550
1.928469
1.738689
0.585935
1.203833
1.312326
1.623470
1.223435
1.755394
1.208862
1.072902
0.646757
0.586809
1.175298
1.399817
0.679717
1.375422
0.915059
0.000000
0.000000
0.000000
0.000000
1.974993
1.872646
1.873868
2.065852
2.442072
1.990319
1.893844
2.009519
1.732898
1.654494
1.866000
0.941487
1.719030
1.875364
1.496042
1.097225
1.121795
1.154817
0.985334
1.110340
0.000000
0.000000
0.000000
0.000000
2.441779
2.360381
2.667362
2.830527
2.661171
2.167948
2.397595
2.255264
2.186832
1.998940
1.989029
1.735233
1.726793
1.635261
1.459279
2.016797
1.364727
1.544647
1.214653
1.474572
0.000000
0.000000
0.000000
0.000000
2.894844
1.763210
1.588901
2.572196
1.240929
1.843003
2.090999
2.278922
2.499486
2.426992
2.496706
2.012045
2.483532
2.023296
1.537102
1.558158
2.313930
1.828395
1.437633
1.327428
0.000000
0.000000
0.000000
0.000000
1.197705
4.543927
0.509703
2.291333
1.195300
1.870920
1.520438
1.291663
1.890950
2.111718
2.122023
2.629378
2.441674
2.365074
2.286812
2.533718
2.263246
1.585135
1.831706
1.345020
0.000000
0.000000
0.000000
0.000000
3.810809
3.861453
2.718317
2.251420
4.029443
1.997988
3.773879
3.473073
2.113732
1.778225
1.795231
1.987401
1.719798
1.631651
2.957971
2.526647
2.464339
2.306591
2.051102
1.537989
0.000000
0.000000
0.000000
0.000000
0.000000
0.000000
0.000000
0.000000
0.000000
0.000000
0.000000
0.000000
0.000000
0.000000
0.000000
0.000000
0.000000
0.000000
0.000000
0.000000
0.000000
0.000000
0.000000
0.000000
0.000000
0.000000
0.000000
0.000000
0.000000
0.000000
0.000000
0.000000
0.000000
0.000000
0.000000
0.000000
0.000000
0.000000
0.000000
0.000000
0.000000
0.000000
0.000000
0.000000
0.000000
0.000000
0.000000
0.000000
0.000000
0.000000
0.000000
0.000000
0.000000
0.000000
0.000000
0.000000
0.000000
0.000000
0.000000
0.000000
0.000000
0.000000
0.000000
0.000000
0.000000
0.000000
0.000000
0.000000
0.000000
0.000000
0.000000
0.000000
0.000000
0.000000
0.000000
0.000000
0.000000
0.000000
0.000000
0.000000
0.000000
0.000000
0.000000
0.000000
0.000000
0.000000
0.000000
0.000000
0.000000
0.000000
0.000000
0.000000
0.000000
0.000000
0.000000
0.000000
0.000000
0.000000
0.000000
0.000000
0.000000
0.000000
0.000000
0.000000
0.000000
0.000000
0.000000
0.000000
0.000000
0.000000
0.000000
0.000000
0.000000
0.000000
0.000000
0.000000
0.000000
0.000000
0.000000
0.000000
0.000000
0.000000
0.000000
0.000000
0.000000
0.000000
0.000000
0.000000
0.000000
0.000000
0.000000
0.000000
0.000000
0.000000
0.000000
0.000000
0.000000
0.000000
0.000000
0.000000
0.000000
0.000000
0.000000
0.000000
0.000000
0.000000
0.000000
0.000000
0.000000
0.000000
0.000000
0.000000
0.000000
0.000000
0.000000
0.000000
0.000000
0.000000
0.000000
0.000000
0.000000
0.000000
0.000000
0.000000
0.000000
0.000000
0.000000
0.000000
0.000000
0.000000
0.000000
0.000000
0.000000
0.000000
0.000000
0.000000
0.000000
0.000000
0.000000
0.000000
0.000000
0.000000
0.000000
0.000000
0.000000
0.000000
0.000000
0.000000
0.000000
0.000000
0.000000
0.000000
0.000000
0.000000
0.000000
0.000000
0.000000
0.000000
0.000000
0.000000
0.000000
0.000000
0.000000
0.000000
0.000000
0.000000
0.000000
0.000000
0.000000
0.000000
0.000000
0.000000
0.000000
0.000000
0.000000
0.000000
0.000000
0.000000
0.000000
0.000000
0.000000
0.000000
0.000000
0.000000
0.000000
0.000000
0.000000
0.000000
0.000000
0.000000
0.000000
0.000000
</DataArray>
<DataArray NumberOfComponents='1' type='Float32' Name='pressure' format='ascii'>
0.000000
0.000000
0.000000
0.000000
0.000000
0.000000
0.000000
0.000000
0.000000
0.000000
0.000000
0.000000
0.000000
0.000000
0.000000
0.000000
0.000000
0.000000
0.000000
0.000000
0.000000
0.000000
0.000000
0.000000
0.000000
0.000000
0.000000
0.000000
0.000000
0.000000
0.000000
0.000000
0.000000
0.000000
0.000000
0.000000
0.000000
0.000000
0.000000
0.000000
0.000000
0.000000
0.000000
0.000000
0.000000
0.000000
0.000000
0.000000
0.000000
0.000000
0.000000
0.000000
0.000000
0.000000
0.000000
0.000000
0.000000
0.000000
2875.071777
2940.783447
3803.385498
3571.459717
1691.999146
0.000000
388.232117
0.000000
0.000000
0.000000
0.000000
0.000000
0.000000
0.000000
0.000000
0.000000
0.000000
0.000000
0.000000
0.000000
0.000000
0.000000
0.000000
0.000000
0.000000
0.000000
0.000000
0.000000
2805.929932
2443.132080
3499.828857
2659.523682
583.633972
0.000000
245.915466
0.000000
0.000000
0.000000
0.000000
0.000000
0.000000
0.000000
0.000000
0.000000
0.000000
0.000000
0.000000
0.000000
0.000000
0.000000
0.000000
0.000000
0.000000
0.000000
0.000000
0.000000
3316.296387
1673.605225
2213.609619
424.009277
2343.538330
1927.510376
993.766907
1087.959961
2323.795654
767.810791
0.000000
1318.953491
694.874695
1781.313721
1101.028809
1221.773804
1661.357666
0.000000
0.000000
128.112778
0.000000
0.000000
0.000000
0.000000
3777.166992
3038.048340
904.115173
1395.307983
1648.411133
0.000000
825.073730
1693.612183
117.700249
854.107788
0.000000
450.175049
592.364807
0.000000
0.000000
0.000000
4.195430
330.274933
932.102051
0.000000
0.000000
0.000000
0.000000
0.000000
2516.698975
2338.803467
1429.358521
359.278351
703.773560
1389.399292
0.000000
1017.279358
1047.906860
506.056854
876.147034
384.591125
605.514343
774.135620
0.000000
595.039734
433.014740
65.890121
0.000000
0.000000
0.000000
0.000000
0.000000
0.000000
3740.528320
2446.852783
0.000000
1255.411499
1913.344482
1754.307617
594.695312
1930.054810
1420.328125
0.000000
1202.471191
0.000000
0.000000
130.399200
0.000000
0.000000
151.492233
382.107574
133.764481
0.000000
0.000000
880.077759
0.000000
0.000000
4927.004883
2539.435547
512.669373
1711.649048
2096.733154
0.000000
0.000000
1975.799805
770.369568
1163.950439
411.335541
0.000000
0.000000
462.859650
595.321350
0.000000
0.000000
0.000000
0.000000
0.000000
0.000000
0.000000
0.000000
0.000000
4756.610840
1348.192993
1328.147583
0.000000
0.000000
0.000000
1108.064575
624.035156
0.000000
90.067543
1468.717285
0.000000
0.000000
1699.434326
1193.399536
0.000000
0.000000
0.000000
764.033020
192.124115
0.000000
0.000000
0.000000
0.000000
4041.606445
1165.724854
0.000000
0.000000
0.000000
0.000000
0.000000
0.000000
0.000000
0.000000
0.000000
0.000000
1250.694214
1061.922974
0.000000
0.000000
779.717468
0.000000
0.000000
0.000000
0.000000
21.778090
0.000000
0.000000
3048.677002
3126.022217
0.000000
0.000000
0.000000
0.000000
1561.131470
0.000000
0.000000
259.667786
0.000000
0.000000
0.000000
999.918335
0.000000
224.063141
0.000000
0.000000
0.000000
408.487671
0.000000
0.000000
0.000000
0.000000
1616.591675
0.000000
0.000000
0.000000
0.000000
0.000000
0.000000
825.209351
0.000000
0.000000
0.000000
252.243149
599.778381
0.000000
0.000000
0.000000
0.000000
0.000000
0.000000
0.000000
0.000000
0.000000
0.000000
0.000000
1056.639160
0.000000
0.000000
0.000000
3287.567871
0.000000
0.000000
3094.637451
0.000000
0.000000
0.000000
1613.339600
0.000000
0.000000
2474.285400
0.000000
0.000000
0.000000
0.000000
0.000000
0.000000
0.000000
0.000000
0.000000
799.518860
650.142639
0.000000
0.000000
2266.117676
2112.966797
0.000000
0.000000
1748.889893
55.637920
0.000000
0.000000
2904.883301
2552.880127
0.000000
0.000000
2521.780518
3413.736816
0.000000
0.000000
2624.608643
2152.688721
0.000000
0.000000
1359.147949
0.000000
0.000000
0.000000
1668.768433
487.918518
0.000000
0.000000
656.446045
0.000000
0.000000
0.000000
1562.616211
901.144958
0.000000
0.000000
3024.031738
3295.734375
0.000000
0.000000
1696.213257
2145.482666
0.000000
0.000000
1515.623657
872.099243
0.000000
0.000000
2175.800781
3397.268555
0.000000
0.000000
2005.777344
1508.198853
0.000000
0.000000
1085.471313
772.141174
0.000000
0.000000
1846.238525
1345.482910
0.000000
0.000000
78.733398
0.000000
0.000000
0.000000
55.395458
0.000000
0.000000
0.000000
0.000000
0.000000
0.000000
0.000000
0.000000
0.000000
0.000000
0.000000
0.000000
0.000000
0.000000
0.000000
586.519104
0.000000
0.000000
0.000000
872.408020
0.000000
0.000000
0.000000
678.596375
0.000000
0.000000
0.000000
0.000000
0.000000
0.000000
0.000000
0.000000
0.000000
0.000000
0.000000
3292.853760
3861.294678
0.000000
0.000000
2745.509766
987.932373
0.000000
0.000000
132.532562
0.000000
0.000000
0.000000
530.122009
0.000000
0.000000
2127.351318
0.000000
2847.639160
5956.259277
0.000000
0.000000
0.000000
0.000000
0.000000
0.000000
0.000000
0.000000
0.000000
0.000000
0.000000
0.000000
0.000000
0.000000
0.000000
0.000000
0.000000
0.000000
0.000000
0.000000
0.000000
655.864014
961.691223
2580.715088
4387.505859
1660.894287
4014.689453
4524.463379
1862.552246
4076.818848
4373.854004
0.000000
0.000000
0.000000
2468.559326
1578.575317
0.000000
0.000000
0.000000
0.000000
0.000000
0.000000
0.000000
0.000000
0.000000
0.000000
0.000000
0.000000
0.000000
0.000000
0.000000
0.000000
0.000000
0.000000
0.000000
0.000000
0.000000
0.000000
0.000000
0.000000
0.000000
0.000000
0.000000
0.000000
0.000000
0.000000
0.000000
0.000000
0.000000
0.000000
0.000000
0.000000
0.000000
0.000000
0.000000
0.000000
0.000000
0.000000
0.000000
0.000000
0.000000
0.000000
0.000000
0.000000
0.000000
0.000000
0.000000
0.000000
0.000000
0.000000
0.000000
0.000000
0.000000
0.000000
0.000000
0.000000
0.000000
0.000000
0.000000
0.000000
0.000000
0.000000
0.000000
</DataArray>
</PointData>
<Cells>
<DataArray type='Int32' Name='connectivity' format='ascii'>
0
1
2
3
4
5
6
7
8
9
10
11
12
13
14
15
16
17
18
19
20
21
22
23
24
25
26
27
28
29
30
31
32
33
34
35
36
37
38
39
40
41
42
43
44
45
46
47
48
49
50
51
52
53
54
55
56
57
58
59
60
61
62
63
64
65
66
67
68
69
70
71
72
73
74
75
76
77
78
79
80
81
82
83
84
85
86
87
88
89
90
91
92
93
94
95
96
97
98
99
100
101
102
103
104
105
106
107
108
109
110
111
112
113
114
115
116
117
118
119
120
121
122
123
124
125
126
127
128
129
130
131
132
133
134
135
136
137
138
139
140
141
142
143
144
145
146
147
148
149
150
151
152
153
154
155
156
157
158
159
160
161
162
163
164
165
166
167
168
169
170
171
172
173
174
175
176
177
178
179
180
181
182
183
184
185
186
187
188
189
190
191
192
193
194
195
196
197
198
199
200
201
202
203
204
205
206
207
208
209
210
211
212
213
214
215
216
217
218
219
220
221
222
223
224
225
226
227
228
229
230
231
232
233
234
235
236
237
238
239
240
241
242
243
244
245
246
247
248
249
250
251
252
253
254
255
256
257
258
259
260
261
262
263
264
265
266
267
268
269
270
271
272
273
274
275
276
277
278
279
280
281
282
283
284
285
286
287
288
289
290
291
292
293
294
295
296
297
298
299
300
301
302
303
304
305
306
307
308
309
310
311
312
313
314
315
316
317
318
319
320
321
322
323
324