<?xml version='1.0' encoding='UTF-8'?>
<VTKFile xmlns='VTK' byte_order='LittleEndian' version='0.1' type='UnstructuredGrid'>
<UnstructuredGrid>
<Piece NumberOfCells='584' NumberOfPoints='584'>
<Points>
<DataArray NumberOfComponents='3' type='Float32' Name='Position' format='ascii'>
-0.075000 -0.075000 0.000000
-0.075000 -0.050000 0.000000
-0.075000 -0.025000 0.000000
-0.075000 0.000000 0.000000
-0.075000 0.025000 0.000000
-0.075000 0.050000 0.000000
-0.075000 0.075000 0.000000
-0.075000 0.100000 0.000000
-0.075000 0.125000 0.000000
-0.075000 0.150000 0.000000
-0.075000 0.175000 0.000000
-0.075000 0.200000 0.000000
-0.075000 0.225000 0.000000
-0.075000 0.250000 0.000000
-0.075000 0.275000 0.000000
-0.075000 0.300000 0.000000
-0.075000 0.325000 0.000000
-0.075000 0.350000 0.000000
-0.075000 0.375000 0.000000
-0.075000 0.400000 0.000000
-0.075000 0.425000 0.000000
-0.075000 0.450000 0.000000
-0.075000 0.475000 0.000000
-0.075000 0.500000 0.000000
-0.075000 0.525000 0.000000
-0.075000 0.550000 0.000000
-0.075000 0.575000 0.000000
-0.075000 0.600000 0.000000
-0.050000 -0.075000 0.000000
-0.050000 -0.050000 0.000000
-0.050000 -0.025000 0.000000
-0.050000 0.000000 0.000000
-0.050000 0.025000 0.000000
-0.050000 0.050000 0.000000
-0.050000 0.075000 0.000000
-0.050000 0.100000 0.000000
-0.050000 0.125000 0.000000
-0.050000 0.150000 0.000000
-0.050000 0.175000 0.000000
-0.050000 0.200000 0.000000
-0.050000 0.225000 0.000000
-0.050000 0.250000 0.000000
-0.050000 0.275000 0.000000
-0.050000 0.300000 0.000000
-0.050000 0.325000 0.000000
-0.050000 0.350000 0.000000
-0.050000 0.375000 0.000000
-0.050000 0.400000 0.000000
-0.050000 0.425000 0.000000
-0.050000 0.450000 0.000000
-0.050000 0.475000 0.000000
-0.050000 0.500000 0.000000
-0.050000 0.525000 0.000000
-0.050000 0.550000 0.000000
-0.050000 0.575000 0.000000
-0.050000 0.600000 0.000000
-0.025000 -0.075000 0.000000
-0.025000 -0.050000 0.000000
-0.025000 -0.025000 0.000000
-0.025000 0.000000 0.000000
-0.025000 0.025000 0.000000
-0.025000 0.050000 0.000000
-0.025000 0.075000 0.000000
-0.025000 0.100000 0.000000
-0.025000 0.125000 0.000000
-0.025000 0.150000 0.000000
-0.025000 0.175000 0.000000
-0.025000 0.200000 0.000000
-0.025000 0.225000 0.000000
-0.025000 0.250000 0.000000
-0.025000 0.275000 0.000000
-0.025000 0.300000 0.000000
-0.025000 0.325000 0.000000
-0.025000 0.350000 0.000000
-0.025000 0.375000 0.000000
-0.025000 0.400000 0.000000
-0.025000 0.425000 0.000000
-0.025000 0.450000 0.000000
-0.025000 0.475000 0.000000
-0.025000 0.500000 0.000000
-0.025000 0.525000 0.000000
-0.025000 0.550000 0.000000
-0.025000 0.575000 0.000000
-0.025000 0.600000 0.000000
0.000000 -0.075000 0.000000
0.000000 -0.050000 0.000000
0.000000 -0.025000 0.000000
0.000000 0.000000 0.000000
0.000000 0.025000 0.000000
0.000000 0.050000 0.000000
0.000000 0.075000 0.000000
0.000000 0.100000 0.000000
0.000000 0.125000 0.000000
0.000000 0.150000 0.000000
0.000000 0.175000 0.000000
0.000000 0.200000 0.000000
0.000000 0.225000 0.000000
0.000000 0.250000 0.000000
0.000000 0.275000 0.000000
0.000000 0.300000 0.000000
0.000000 0.325000 0.000000
0.000000 0.350000 0.000000
0.000000 0.375000 0.000000
0.000000 0.400000 0.000000
0.000000 0.425000 0.000000
0.000000 0.450000 0.000000
0.000000 0.475000 0.000000
0.000000 0.500000 0.000000
0.000000 0.525000 0.000000
0.000000 0.550000 0.000000
0.000000 0.575000 0.000000
0.000000 0.600000 0.000000
0.025000 -0.075000 0.000000
0.025000 -0.050000 0.000000
0.025000 -0.025000 0.000000
0.025000 0.000000 0.000000
0.043216 0.021090 0.000000
0.021373 0.031766 0.000000
0.051526 0.043483 0.000000
0.031556 0.057955 0.000000
0.056115 0.069200 0.000000
0.028700 0.078971 0.000000
0.055140 0.093272 0.000000
0.023223 0.100641 0.000000
0.042565 0.117945 0.000000
0.022520 0.132135 0.000000
0.036020 0.150276 0.000000
0.023763 0.171216 0.000000
0.028463 0.191908 0.000000
0.026760 0.214282 0.000000
0.024784 0.235436 0.000000
0.026362 0.259028 0.000000
0.028316 0.280852 0.000000
0.023948 0.302988 0.000000
0.027759 0.328808 0.000000
0.025842 0.346174 0.000000
0.050000 -0.075000 0.000000
0.050000 -0.050000 0.000000
0.050000 -0.025000 0.000000
0.050000 0.000000 0.000000
0.095385 0.028347 0.000000
0.075862 0.026077 0.000000
0.075799 0.053379 0.000000
0.116636 0.073858 0.000000
0.087733 0.073533 0.000000
0.094988 0.095911 0.000000
0.071671 0.106585 0.000000
0.095604 0.123552 0.000000
0.063437 0.129167 0.000000
0.079976 0.150604 0.000000
0.056440 0.159312 0.000000
0.070352 0.176044 0.000000
0.056488 0.192403 0.000000
0.064730 0.210391 0.000000
0.056488 0.228864 0.000000
0.059495 0.247726 0.000000
0.054206 0.269672 0.000000
0.058887 0.289418 0.000000
0.053106 0.313102 0.000000
0.056289 0.335028 0.000000
0.075000 -0.075000 0.000000
0.075000 -0.050000 0.000000
0.075000 -0.025000 0.000000
0.075000 0.000000 0.000000
0.119653 0.022899 0.000000
0.105652 0.055150 0.000000
0.147497 0.025217 0.000000
0.127793 0.047276 0.000000
0.150063 0.078027 0.000000
0.132871 0.091980 0.000000
0.153158 0.110949 0.000000
0.114559 0.108443 0.000000
0.131710 0.130213 0.000000
0.099373 0.142919 0.000000
0.117583 0.167373 0.000000
0.099011 0.178645 0.000000
0.098709 0.197837 0.000000
0.096527 0.216676 0.000000
0.092495 0.235974 0.000000
0.088554 0.256030 0.000000
0.089112 0.275798 0.000000
0.083002 0.298146 0.000000
0.084016 0.321974 0.000000
0.073087 0.337873 0.000000
0.100000 -0.075000 0.000000
0.100000 -0.050000 0.000000
0.100000 -0.025000 0.000000
0.100000 0.000000 0.000000
0.197400 0.027790 0.000000
0.176329 0.023069 0.000000
0.173296 0.048374 0.000000
0.188074 0.065307 0.000000
0.150707 0.046994 0.000000
0.196064 0.084491 0.000000
0.166360 0.087545 0.000000
0.187400 0.104147 0.000000
0.152807 0.130881 0.000000
0.174551 0.146579 0.000000
0.136857 0.151704 0.000000
0.151386 0.170630 0.000000
0.135059 0.184294 0.000000
0.136580 0.204147 0.000000
0.130690 0.224027 0.000000
0.123197 0.241889 0.000000
0.123576 0.264566 0.000000
0.115649 0.284148 0.000000
0.111117 0.307268 0.000000
0.109118 0.330557 0.000000
0.125000 -0.075000 0.000000
0.125000 -0.050000 0.000000
0.125000 -0.025000 0.000000
0.125000 0.000000 0.000000
0.241192 0.021168 0.000000
0.215556 0.036175 0.000000
0.257688 0.029548 0.000000
0.243533 0.055937 0.000000
0.266868 0.057660 0.000000
0.215930 0.056173 0.000000
0.228263 0.074286 0.000000
0.226209 0.104920 0.000000
0.207373 0.112427 0.000000
0.194773 0.132444 0.000000
0.197237 0.150359 0.000000
0.184478 0.169468 0.000000
0.178039 0.185780 0.000000
0.169594 0.204622 0.000000
0.166290 0.222307 0.000000
0.154823 0.240451 0.000000
0.155114 0.261461 0.000000
0.144188 0.280529 0.000000
0.144904 0.306441 0.000000
0.130563 0.321591 0.000000
0.150000 -0.075000 0.000000
0.150000 -0.050000 0.000000
0.150000 -0.025000 0.000000
0.150000 0.000000 0.000000
0.330285 0.025376 0.000000
0.291434 0.020606 0.000000
0.312375 0.038625 0.000000
0.286105 0.042183 0.000000
0.290918 0.067933 0.000000
0.313857 0.065251 0.000000
0.264651 0.080414 0.000000
0.287486 0.096680 0.000000
0.242944 0.092124 0.000000
0.259882 0.119204 0.000000
0.242395 0.128739 0.000000
0.235595 0.147620 0.000000
0.229308 0.166061 0.000000
0.219627 0.183831 0.000000
0.210788 0.202659 0.000000
0.201369 0.222319 0.000000
0.190381 0.242342 0.000000
0.184030 0.265650 0.000000
0.173877 0.287754 0.000000
0.163074 0.311988 0.000000
0.175000 -0.075000 0.000000
0.175000 -0.050000 0.000000
0.175000 -0.025000 0.000000
0.175000 0.000000 0.000000
0.394349 0.023233 0.000000
0.353525 0.027523 0.000000
0.391778 0.048462 0.000000
0.374149 0.033406 0.000000
0.367926 0.067205 0.000000
0.336900 0.049653 0.000000
0.346221 0.070227 0.000000
0.342987 0.092382 0.000000
0.311223 0.089980 0.000000
0.320882 0.107456 0.000000
0.284487 0.115663 0.000000
0.281234 0.136440 0.000000
0.266974 0.151748 0.000000
0.256501 0.171918 0.000000
0.247380 0.192720 0.000000
0.233460 0.211252 0.000000
0.223695 0.233486 0.000000
0.209052 0.253876 0.000000
0.205846 0.282471 0.000000
0.188218 0.301249 0.000000
0.200000 -0.075000 0.000000
0.200000 -0.050000 0.000000
0.200000 -0.025000 0.000000
0.200000 0.000000 0.000000
0.567945 0.034643 0.000000
0.452369 0.021336 0.000000
0.496734 0.020332 0.000000
0.418822 0.024742 0.000000
0.481909 0.038077 0.000000
0.455540 0.039341 0.000000
0.417820 0.053343 0.000000
0.405325 0.071709 0.000000
0.376473 0.083811 0.000000
0.363528 0.105188 0.000000
0.354680 0.124515 0.000000
0.324013 0.127448 0.000000
0.321589 0.148160 0.000000
0.304834 0.156822 0.000000
0.290980 0.173022 0.000000
0.285208 0.191859 0.000000
0.267774 0.209229 0.000000
0.255294 0.234283 0.000000
0.240777 0.257737 0.000000
0.221814 0.285757 0.000000
0.225000 -0.075000 0.000000
0.225000 -0.050000 0.000000
0.225000 -0.025000 0.000000
0.225000 0.000000 0.000000
0.590325 0.023338 0.000000
0.608639 0.046718 0.000000
0.547374 0.022070 0.000000
0.545121 0.049841 0.000000
0.528349 0.033759 0.000000
0.523677 0.066233 0.000000
0.504970 0.043894 0.000000
0.480147 0.064298 0.000000
0.440084 0.056965 0.000000
0.444066 0.076178 0.000000
0.417165 0.087406 0.000000
0.401045 0.105363 0.000000
0.388231 0.119926 0.000000
0.366360 0.141382 0.000000
0.346378 0.160379 0.000000
0.326404 0.177569 0.000000
0.309582 0.200395 0.000000
0.286481 0.223954 0.000000
0.270069 0.245733 0.000000
0.241684 0.272928 0.000000
0.250000 -0.075000 0.000000
0.250000 -0.050000 0.000000
0.250000 -0.025000 0.000000
0.250000 0.000000 0.000000
0.681310 0.022419 0.000000
0.651835 0.023086 0.000000
0.617147 0.024298 0.000000
0.641853 0.036390 0.000000
0.634982 0.052982 0.000000
0.593737 0.056955 0.000000
0.579999 0.067397 0.000000
0.566874 0.062741 0.000000
0.531493 0.088085 0.000000
0.507241 0.070442 0.000000
0.482075 0.081908 0.000000
0.463719 0.093870 0.000000
0.443585 0.104537 0.000000
0.420610 0.119503 0.000000
0.398774 0.140696 0.000000
0.379352 0.157676 0.000000
0.353994 0.177677 0.000000
0.336806 0.196561 0.000000
0.308532 0.217804 0.000000
0.287280 0.247274 0.000000
0.275000 -0.075000 0.000000
0.275000 -0.050000 0.000000
0.275000 -0.025000 0.000000
0.275000 0.000000 0.000000
0.300000 -0.075000 0.000000
0.300000 -0.050000 0.000000
0.300000 -0.025000 0.000000
0.300000 0.000000 0.000000
0.325000 -0.075000 0.000000
0.325000 -0.050000 0.000000
0.325000 -0.025000 0.000000
0.325000 0.000000 0.000000
0.350000 -0.075000 0.000000
0.350000 -0.050000 0.000000
0.350000 -0.025000 0.000000
0.350000 0.000000 0.000000
0.375000 -0.075000 0.000000
0.375000 -0.050000 0.000000
0.375000 -0.025000 0.000000
0.375000 0.000000 0.000000
0.400000 -0.075000 0.000000
0.400000 -0.050000 0.000000
0.400000 -0.025000 0.000000
0.400000 0.000000 0.000000
0.425000 -0.075000 0.000000
0.425000 -0.050000 0.000000
0.425000 -0.025000 0.000000
0.425000 0.000000 0.000000
0.450000 -0.075000 0.000000
0.450000 -0.050000 0.000000
0.450000 -0.025000 0.000000
0.450000 0.000000 0.000000
0.475000 -0.075000 0.000000
0.475000 -0.050000 0.000000
0.475000 -0.025000 0.000000
0.475000 0.000000 0.000000
0.500000 -0.075000 0.000000
0.500000 -0.050000 0.000000
0.500000 -0.025000 0.000000
0.500000 0.000000 0.000000
0.525000 -0.075000 0.000000
0.525000 -0.050000 0.000000
0.525000 -0.025000 0.000000
0.525000 0.000000 0.000000
0.550000 -0.075000 0.000000
0.550000 -0.050000 0.000000
0.550000 -0.025000 0.000000
0.550000 0.000000 0.000000
0.575000 -0.075000 0.000000
0.575000 -0.050000 0.000000
0.575000 -0.025000 0.000000
0.575000 0.000000 0.000000
0.600000 -0.075000 0.000000
0.600000 -0.050000 0.000000
0.600000 -0.025000 0.000000
0.600000 0.000000 0.000000
0.625000 -0.075000 0.000000
0.625000 -0.050000 0.000000
0.625000 -0.025000 0.000000
0.625000 0.000000 0.000000
0.650000 -0.075000 0.000000
0.650000 -0.050000 0.000000
0.650000 -0.025000 0.000000
0.650000 0.000000 0.000000
0.675000 -0.075000 0.000000
0.675000 -0.050000 0.000000
0.675000 -0.025000 0.000000
0.675000 0.000000 0.000000
0.700000 -0.075000 0.000000
0.700000 -0.050000 0.000000
0.700000 -0.025000 0.000000
0.700000 0.000000 0.000000
0.725000 -0.075000 0.000000
0.725000 -0.050000 0.000000
0.725000 -0.025000 0.000000
0.725000 0.000000 0.000000
0.750000 -0.075000 0.000000
0.750000 -0.050000 0.000000
0.750000 -0.025000 0.000000
0.750000 0.000000 0.000000
0.775000 -0.075000 0.000000
0.775000 -0.050000 0.000000
0.775000 -0.025000 0.000000
0.775000 0.000000 0.000000
0.800000 -0.075000 0.000000
0.800000 -0.050000 0.000000
0.800000 -0.025000 0.000000
0.800000 0.000000 0.000000
0.825000 -0.075000 0.000000
0.825000 -0.050000 0.000000
0.825000 -0.025000 0.000000
0.825000 0.000000 0.000000
0.850000 -0.075000 0.000000
0.850000 -0.050000 0.000000
0.850000 -0.025000 0.000000
0.850000 0.000000 0.000000
0.875000 -0.075000 0.000000
0.875000 -0.050000 0.000000
0.875000 -0.025000 0.000000
0.875000 0.000000 0.000000
0.900000 -0.075000 0.000000
0.900000 -0.050000 0.000000
0.900000 -0.025000 0.000000
0.900000 0.000000 0.000000
0.925000 -0.075000 0.000000
0.925000 -0.050000 0.000000
0.925000 -0.025000 0.000000
0.925000 0.000000 0.000000
0.950000 -0.075000 0.000000
0.950000 -0.050000 0.000000
0.950000 -0.025000 0.000000
0.950000 0.000000 0.000000
0.975000 -0.075000 0.000000
0.975000 -0.050000 0.000000
0.975000 -0.025000 0.000000
0.975000 0.000000 0.000000
1.000000 -0.075000 0.000000
1.000000 -0.050000 0.000000
1.000000 -0.025000 0.000000
1.000000 0.000000 0.000000
1.025000 -0.075000 0.000000
1.025000 -0.050000 0.000000
1.025000 -0.025000 0.000000
1.025000 0.000000 0.000000
1.025000 0.025000 0.000000
1.025000 0.050000 0.000000
1.025000 0.075000 0.000000
1.025000 0.100000 0.000000
1.025000 0.125000 0.000000
1.025000 0.150000 0.000000
1.025000 0.175000 0.000000
1.025000 0.200000 0.000000
1.025000 0.225000 0.000000
1.025000 0.250000 0.000000
1.025000 0.275000 0.000000
1.025000 0.300000 0.000000
1.025000 0.325000 0.000000
1.025000 0.350000 0.000000
1.025000 0.375000 0.000000
1.025000 0.400000 0.000000
1.025000 0.425000 0.000000
1.025000 0.450000 0.000000
1.025000 0.475000 0.000000
1.025000 0.500000 0.000000
1.025000 0.525000 0.000000
1.025000 0.550000 0.000000
1.025000 0.575000 0.000000
1.025000 0.600000 0.000000
1.050000 -0.075000 0.000000
1.050000 -0.050000 0.000000
1.050000 -0.025000 0.000000
1.050000 0.000000 0.000000
1.050000 0.025000 0.000000
1.050000 0.050000 0.000000
1.050000 0.075000 0.000000
1.050000 0.100000 0.000000
1.050000 0.125000 0.000000
1.050000 0.150000 0.000000
1.050000 0.175000 0.000000
1.050000 0.200000 0.000000
1.050000 0.225000 0.000000
1.050000 0.250000 0.000000
1.050000 0.275000 0.000000
1.050000 0.300000 0.000000
1.050000 0.325000 0.000000
1.050000 0.350000 0.000000
1.050000 0.375000 0.000000
1.050000 0.400000 0.000000
1.050000 0.425000 0.000000
1.050000 0.450000 0.000000
1.050000 0.475000 0.000000
1.050000 0.500000 0.000000
1.050000 0.525000 0.000000
1.050000 0.550000 0.000000
1.050000 0.575000 0.000000
1.050000 0.600000 0.000000
1.075000 -0.075000 0.000000
1.075000 -0.050000 0.000000
1.075000 -0.025000 0.000000
1.075000 0.000000 0.000000
1.075000 0.025000 0.000000
1.075000 0.050000 0.000000
1.075000 0.075000 0.000000
1.075000 0.100000 0.000000
1.075000 0.125000 0.000000
1.075000 0.150000 0.000000
1.075000 0.175000 0.000000
1.075000 0.200000 0.000000
1.075000 0.225000 0.000000
1.075000 0.250000 0.000000
1.075000 0.275000 0.000000
1.075000 0.300000 0.000000
1.075000 0.325000 0.000000
1.075000 0.350000 0.000000
1.075000 0.375000 0.000000
1.075000 0.400000 0.000000
1.075000 0.425000 0.000000
1.075000 0.450000 0.000000
1.075000 0.475000 0.000000
1.075000 0.500000 0.000000
1.075000 0.525000 0.000000
1.075000 0.550000 0.000000
1.075000 0.575000 0.000000
1.075000 0.600000 0.000000
1.100000 -0.075000 0.000000
1.100000 -0.050000 0.000000
1.100000 -0.025000 0.000000
1.100000 0.000000 0.000000
1.100000 0.025000 0.000000
1.100000 0.050000 0.000000
1.100000 0.075000 0.000000
1.100000 0.100000 0.000000
1.100000 0.125000 0.000000
1.100000 0.150000 0.000000
1.100000 0.175000 0.000000
1.100000 0.200000 0.000000
1.100000 0.225000 0.000000
1.100000 0.250000 0.000000
1.100000 0.275000 0.000000
1.100000 0.300000 0.000000
1.100000 0.325000 0.000000
1.100000 0.350000 0.000000
1.100000 0.375000 0.000000
1.100000 0.400000 0.000000
1.100000 0.425000 0.000000
1.100000 0.450000 0.000000
1.100000 0.475000 0.000000
1.100000 0.500000 0.000000
1.100000 0.525000 0.000000
1.100000 0.550000 0.000000
1.100000 0.575000 0.000000
1.100000 0.600000 0.000000
</DataArray>
</Points>
<PointData>
<DataArray NumberOfComponents='1' type='Int32' Name='ParticleType' format='ascii'>
3
3
3
3
3
3
3
3
3
3
3
3
3
3
3
3
3
3
3
3
3
3
3
3
3
3
2
2
3
3
3
3
3
3
3
3
3
3
3
3
3
3
3
3
3
3
3
3
3
3
3
3
3
3
2
2
3
3
2
2
2
2
2
2
2
2
2
2
2
2
2
2
2
2
2
2
2
2
2
2
2
2
2
2
3
3
2
2
2
2
2
2
2
2
2
2
2
2
2
2
2
2
2
2
2
2
2
2
2
2
2
2
3
3
2
2
0
0
0
0
0
0
0
0
0
0
0
0
0
0
0
0
0
0
0
0
3
3
2
2
0
0
0
0
0
0
0
0
0
0
0
0
0
0
0
0
0
0
0
0
3
3
2
2
0
0
0
0
0
0
0
0
0
0
0
0
0
0
0
0
0
0
0
0
3
3
2
2
0
0
0
0
0
0
0
0
0
0
0
0
0
0
0
0
0
0
0
0
3
3
2
2
0
0
0
0
0
0
0
0
0
0
0
0
0
0
0
0
0
0
0
0
3
3
2
2
0
0
0
0
0
0
0
0
0
0
0
0
0
0
0
0
0
0
0
0
3
3
2
2
0
0
0
0
0
0
0
0
0
0
0
0
0
0
0
0
0
0
0
0
3
3
2
2
0
0
0
0
0
0
0
0
0
0
0
0
0
0
0
0
0
0
0
0
3
3
2
2
0
0
0
0
0
0
0
0
0
0
0
0
0
0
0
0
0
0
0
0
3
3
2
2
0
0
0
0
0
0
0
0
0
0
0
0
0
0
0
0
0
0
0
0
3
3
2
2
3
3
2
2
3
3
2
2
3
3
2
2
3
3
2
2
3
3
2
2
3
3
2
2
3
3
2
2
3
3
2
2
3
3
2
2
3
3
2
2
3
3
2
2
3
3
2
2
3
3
2
2
3
3
2
2
3
3
2
2
3
3
2
2
3
3
2
2
3
3
2
2
3
3
2
2
3
3
2
2
3
3
2
2
3
3
2
2
3
3
2
2
3
3
2
2
3
3
2
2
3
3
2
2
3
3
2
2
3
3
2
2
3
3
2
2
3
3
2
2
2
2
2
2
2
2
2
2
2
2
2
2
2
2
2
2
2
2
2
2
2
2
2
2
3
3
2
2
2
2
2
2
2
2
2
2
2
2
2
2
2
2
2
2
2
2
2
2
2
2
2
2
3
3
3
3
3
3
3
3
3
3
3
3
3
3
3
3
3
3
3
3
3
3
3
3
3
3
2
2
3
3
3
3
3
3
3
3
3
3
3
3
3
3
3
3
3
3
3
3
3
3
3
3
3
3
2
2
</DataArray>
<DataArray NumberOfComponents='1' type='Float32' Name='Velocity' format='ascii'>
0.000000
0.000000
0.000000
0.000000
0.000000
0.000000
0.000000
0.000000
0.000000
0.000000
0.000000
0.000000
0.000000
0.000000
0.000000
0.000000
0.000000
0.000000
0.000000
0.000000
0.000000
0.000000
0.000000
0.000000
0.000000
0.000000
0.000000
0.000000
0.000000
0.000000
0.000000
0.000000
0.000000
0.000000
0.000000
0.000000
0.000000
0.000000
0.000000
0.000000
0.000000
0.000000
0.000000
0.000000
0.000000
0.000000
0.000000
0.000000
0.000000
0.000000
0.000000
0.000000
0.000000
0.000000
0.000000
0.000000
0.000000
0.000000
0.000000
0.000000
0.000000
0.000000
0.000000
0.000000
0.000000
0.000000
0.000000
0.000000
0.000000
0.000000
0.000000
0.000000
0.000000
0.000000
0.000000
0.000000
0.000000
0.000000
0.000000
0.000000
0.000000
0.000000
0.000000
0.000000
0.000000
0.000000
0.000000
0.000000
0.000000
0.000000
0.000000
0.000000
0.000000
0.000000
0.000000
0.000000
0.000000
0.000000
0.000000
0.000000
0.000000
0.000000
0.000000
0.000000
0.000000
0.000000
0.000000
0.000000
0.000000
0.000000
0.000000
0.000000
0.000000
0.000000
0.000000
0.000000
0.073519
0.199545
0.266556
0.195236
0.390825
0.303511
0.485607
0.555254
0.499535
0.814456
0.727337
0.832591
0.837331
0.737466
0.845324
0.769386
0.864416
0.872184
0.854592
0.906107
0.000000
0.000000
0.000000
0.000000
0.549769
0.330973
0.287524
0.647606
0.511917
0.272133
0.488532
0.714632
0.352407
0.292633
0.542248
0.671464
0.736630
0.809407
0.849818
0.879530
0.815440
0.945777
0.811676
0.869432
0.000000
0.000000
0.000000
0.000000
0.194841
0.264988
0.632438
0.235837
0.715229
0.866253
0.876896
0.765363
1.188815
0.493710
0.696701
0.698901
0.598880
0.568529
0.616573
0.659623
0.740067
0.691354
0.850136
0.980142
0.000000
0.000000
0.000000
0.000000
0.474287
0.782904
0.181403
0.356810
0.408076
1.251465
0.890077
0.699942
0.732177
0.923614
0.442749
0.891205
0.917199
0.799178
0.808141
0.920071
0.855812
0.844577
0.900461
0.862740
0.000000
0.000000
0.000000
0.000000
0.792504
0.670236
0.929618
1.150816
1.265653
0.817841
1.171663
0.912595
1.097524
0.750308
0.920757
0.744721
0.646690
0.605917
0.709211
0.718382
0.789726
0.969629
0.909435
1.111009
0.000000
0.000000
0.000000
0.000000
1.263801
1.430061
0.933392
0.997195
1.072257
1.684660
1.223934
1.546290
1.038473
1.248471
1.185507
1.035412
1.125882
1.034321
1.155831
1.054309
1.199655
1.083510
1.169272
1.100042
0.000000
0.000000
0.000000
0.000000
1.570881
1.467448
1.575697
1.630131
1.636019
1.703236
1.754682
1.331743
1.510720
2.023860
1.090777
1.428770
1.287500
1.300269
1.295535
1.279952
1.235324
1.264059
1.170780
1.280411
0.000000
0.000000
0.000000
0.000000
2.696410
2.057152
2.466677
1.825441
2.855313
2.651721
2.468698
2.018488
1.803859
1.849973
1.573414
1.202988
1.456185
1.496273
1.419912
1.500898
1.585701
1.579757
1.472918
1.451717
0.000000
0.000000
0.000000
0.000000
2.868565
2.762975
2.948919
2.172637
3.073730
2.552214
2.834928
2.411041
2.072200
2.624541
2.137939
2.006989
2.322605
2.030289
1.860141
1.850553
1.798196
1.669186
1.624630
1.463256
0.000000
0.000000
0.000000
0.000000
2.550769
2.943148
2.469623
2.867378
2.794761
2.670559
2.701804
2.823335
2.644331
2.479249
2.400261
2.725282
2.744407
2.567071
2.419234
2.320771
2.015890
2.180573
1.942268
1.894412
0.000000
0.000000
0.000000
0.000000
0.000000
0.000000
0.000000
0.000000
0.000000
0.000000
0.000000
0.000000
0.000000
0.000000
0.000000
0.000000
0.000000
0.000000
0.000000
0.000000
0.000000
0.000000
0.000000
0.000000
0.000000
0.000000
0.000000
0.000000
0.000000
0.000000
0.000000
0.000000
0.000000
0.000000
0.000000
0.000000
0.000000
0.000000
0.000000
0.000000
0.000000
0.000000
0.000000
0.000000
0.000000
0.000000
0.000000
0.000000
0.000000
0.000000
0.000000
0.000000
0.000000
0.000000
0.000000
0.000000
0.000000
0.000000
0.000000
0.000000
0.000000
0.000000
0.000000
0.000000
0.000000
0.000000
0.000000
0.000000
0.000000
0.000000
0.000000
0.000000
0.000000
0.000000
0.000000
0.000000
0.000000
0.000000
0.000000
0.000000
0.000000
0.000000
0.000000
0.000000
0.000000
0.000000
0.000000
0.000000
0.000000
0.000000
0.000000
0.000000
0.000000
0.000000
0.000000
0.000000
0.000000
0.000000
0.000000
0.000000
0.000000
0.000000
0.000000
0.000000
0.000000
0.000000
0.000000
0.000000
0.000000
0.000000
0.000000
0.000000
0.000000
0.000000
0.000000
0.000000
0.000000
0.000000
0.000000
0.000000
0.000000
0.000000
0.000000
0.000000
0.000000
0.000000
0.000000
0.000000
0.000000
0.000000
0.000000
0.000000
0.000000
0.000000
0.000000
0.000000
0.000000
0.000000
0.000000
0.000000
0.000000
0.000000
0.000000
0.000000
0.000000
0.000000
0.000000
0.000000
0.000000
0.000000
0.000000
0.000000
0.000000
0.000000
0.000000
0.000000
0.000000
0.000000
0.000000
0.000000
0.000000
0.000000
0.000000
0.000000
0.000000
0.000000
0.000000
0.000000
0.000000
0.000000
0.000000
0.000000
0.000000
0.000000
0.000000
0.000000
0.000000
0.000000
0.000000
0.000000
0.000000
0.000000
0.000000
0.000000
0.000000
0.000000
0.000000
0.000000
0.000000
0.000000
0.000000
0.000000
0.000000
0.000000
0.000000
0.000000
0.000000
0.000000
0.000000
0.000000
0.000000
0.000000
0.000000
0.000000
0.000000
0.000000
0.000000
0.000000
0.000000
0.000000
0.000000
0.000000
0.000000
0.000000
0.000000
0.000000
0.000000
0.000000
0.000000
0.000000
0.000000
0.000000
0.000000
0.000000
0.000000
0.000000
0.000000
0.000000
0.000000
0.000000
0.000000
0.000000
</DataArray>
<DataArray NumberOfComponents='1' type='Float32' Name='pressure' format='ascii'>
0.000000
0.000000
0.000000
0.000000
0.000000
0.000000
0.000000
0.000000
0.000000
0.000000
0.000000
0.000000
0.000000
0.000000
0.000000
0.000000
0.000000
0.000000
0.000000
0.000000
0.000000
0.000000
0.000000
0.000000
0.000000
0.000000
0.000000
0.000000
0.000000
0.000000
0.000000
0.000000
0.000000
0.000000
0.000000
0.000000
0.000000
0.000000
0.000000
0.000000
0.000000
0.000000
0.000000
0.000000
0.000000
0.000000
0.000000
0.000000
0.000000
0.000000
0.000000
0.000000
0.000000
0.000000
0.000000
0.000000
0.000000
0.000000
2523.917480
2461.264893
3229.287598
1728.904175
869.327454
2541.090332
2570.062256
1137.607788
1176.705688
0.000000
0.000000
0.000000
0.000000
0.000000
0.000000
0.000000
0.000000
0.000000
0.000000
0.000000
0.000000
0.000000
0.000000
0.000000
0.000000
0.000000
0.000000
0.000000
2588.886475
2197.356689
2845.795654
0.000000
0.000000
3001.843262
2836.312256
0.000000
1304.613281
634.304199
1010.008606
0.000000
0.000000
0.000000
0.000000
0.000000
0.000000
0.000000
0.000000
0.000000
0.000000
0.000000
0.000000
0.000000
0.000000
0.000000
0.000000
0.000000
2892.914307
1763.356323
3422.393555
1671.828003
2434.403076
2887.967529
1119.709839
2497.859619
1819.369507
2551.102051
1018.717346
2289.576416
2148.252197
632.104370
882.813965
547.087463
128.930237
0.000000
0.000000
0.000000
0.000000
0.000000
0.000000
0.000000
3924.539062
3905.371338
3029.304443
2118.594971
707.713318
731.901611
1585.503540
2296.160889
1744.870605
1016.062683
1664.890869
1320.261475
1668.955811
1676.055664
726.938721
804.816895
926.686768
381.275116
642.837402
229.981934
273.276001
0.000000
0.000000
0.000000
2138.765869
1086.474609
3128.799072
3333.416748
2638.337891
1621.526367
1031.932129
1705.019409
0.000000
932.625549
860.896790
1753.693115
21.133665
580.515564
741.162048
211.840912
0.000000
764.279968
225.764648
568.279602
294.385803
0.000000
0.000000
0.000000
1895.567383
1611.817505
3294.435791
5017.139648
1478.433716
479.362854
2710.193359
1690.519165
275.307739
477.318207
396.129364
0.000000
270.741333
0.000000
1442.526855
241.363129
896.284790
857.157715
242.322113
337.860016
274.805359
0.000000
0.000000
0.000000
3348.701172
3369.137939
3839.795166
3771.871582
417.110413
1200.472778
3252.980713
2178.973389
2574.446777
791.542664
1003.983582
200.868652
304.829163
966.330078
356.275024
1117.340332
685.981689
636.163757
0.000000
1198.997070
0.000000
0.000000
0.000000
0.000000
2903.849854
2519.160645
2645.207275
1613.818726
2641.056885
2047.866211
1357.820190
1032.802856
0.000000
1449.090698
757.638367
901.783508
1127.527832
364.718323
1078.063232
443.177612
330.845001
46.815502
250.103149
0.000000
539.854614
0.000000
0.000000
0.000000
3416.137207
4197.000977
2064.165039
71.466446
0.000000
1126.596313
277.991882
0.000000
2436.399658
561.657898
1083.033447
608.056702
1968.959717
0.000000
876.328247
0.000000
346.651093
277.188141
0.000000
656.031494
0.000000
0.000000
0.000000
0.000000
1556.021606
355.773773
1698.893188
0.000000
0.000000
0.000000
0.000000
0.000000
0.000000
1263.792480
453.968018
858.832458
0.000000
0.000000
981.993042
495.368073
17.427429
563.633240
0.000000
258.886871
0.000000
0.000000
0.000000
0.000000
2528.562988
0.000000
0.000000
0.000000
1409.870850
0.000000
1019.948059
0.000000
1316.768555
0.000000
384.728851
0.000000
713.809509
0.000000
1574.933960
104.537292
779.757385
1104.192871
0.000000
222.514191
0.000000
0.000000
0.000000
0.000000
3461.215088
3124.558350
0.000000
748.591614
3003.062500
1109.808838
0.000000
1184.946533
0.000000
1373.487305
0.000000
0.000000
0.000000
0.000000
0.000000
0.000000
0.000000
0.000000
0.000000
0.000000
0.000000
0.000000
0.000000
0.000000
2888.928955
1309.571045
0.000000
0.000000
3119.374023
2339.528320
0.000000
0.000000
784.158142
0.000000
0.000000
0.000000
0.000000
0.000000
0.000000
0.000000
0.000000
0.000000
0.000000
0.000000
792.948608
1190.414307
0.000000
0.000000
260.241760
0.000000
0.000000
0.000000
1551.341431
416.712799
0.000000
0.000000
643.118347
0.000000
0.000000
0.000000
2264.224854
948.461182
0.000000
0.000000
164.248886
0.000000
0.000000
0.000000
1676.352417
1417.180664
0.000000
0.000000
415.166626
0.000000
0.000000
0.000000
1279.538086
235.025558
0.000000
0.000000
1480.760742
1961.146484
0.000000
0.000000
2061.108398
3602.098633
0.000000
0.000000
1322.319214
0.000000
0.000000
0.000000
0.000000
0.000000
0.000000
0.000000
0.000000
0.000000
0.000000
0.000000
0.000000
0.000000
0.000000
0.000000
0.000000
0.000000
0.000000
0.000000
0.000000
0.000000
0.000000
0.000000
0.000000
0.000000
0.000000
0.000000
0.000000
0.000000
0.000000
0.000000
0.000000
0.000000
0.000000
0.000000
0.000000
0.000000
0.000000
0.000000
0.000000
0.000000
0.000000
0.000000
0.000000
0.000000
0.000000
0.000000
0.000000
0.000000
0.000000
0.000000
0.000000
0.000000
0.000000
0.000000
0.000000
0.000000
0.000000
0.000000
0.000000
0.000000
0.000000
0.000000
0.000000
0.000000
0.000000
0.000000
0.000000
0.000000
0.000000
0.000000
0.000000
0.000000
0.000000
0.000000
0.000000
0.000000
0.000000
0.000000
0.000000
0.000000
0.000000
0.000000
0.000000
0.000000
0.000000
0.000000
0.000000
0.000000
0.000000
0.000000
0.000000
0.000000
0.000000
0.000000
0.000000
0.000000
0.000000
0.000000
0.000000
0.000000
0.000000
0.000000
0.000000
0.000000
0.000000
0.000000
0.000000
0.000000
0.000000
0.000000
0.000000
0.000000
0.000000
0.000000
0.000000
0.000000
0.000000
0.000000
0.000000
0.000000
0.000000
0.000000
0.000000
0.000000
0.000000
0.000000
0.000000
0.000000
0.000000
0.000000
0.000000
0.000000
0.000000
0.000000
0.000000
0.000000
0.000000
0.000000
0.000000
0.000000
0.000000
0.000000
0.000000
0.000000
0.000000
0.000000
0.000000
0.000000
0.000000
0.000000
0.000000
0.000000
0.000000
0.000000
0.000000
0.000000
0.000000
0.000000
0.000000
0.000000
0.000000
0.000000
0.000000
0.000000
</DataArray>
</PointData>
<Cells>
<DataArray type='Int32' Name='connectivity' format='ascii'>
0
1
2
3
4
5
6
7
8
9
10
11
12
13
14
15
16
17
18
19
20
21
22
23
24
25
26
27
28
29
30
31
32
33
34
35
36
37
38
39
40
41
42
43
44
45
46
47
48
49
50
51
52
53
54
55
56
57
58
59
60
61
62
63
64
65
66
67
68
69
70
71
72
73
74
75
76
77
78
79
80
81
82
83
84
85
86
87
88
89
90
91
92
93
94
95
96
97
98
99
100
101
102
103
104
105
106
107
108
109
110
111
112
113
114
115
116
117
118
119
120
121
122
123
124
125
126
127
128
129
130
131
132
133
134
135
136
137
138
139
140
141
142
143
144
145
146
147
148
149
150
151
152
153
154
155
156
157
158
159
160
161
162
163
164
165
166
167
168
169
170
171
172
173
174
175
176
177
178
179
180
181
182
183
184
185
186
187
188
189
190
191
192
193
194
195
196
197
198
199
200
201
202
203
204
205
206
207
208
209
210
211
212
213
214
215
216
217
218
219
220
221
222
223
224
225
226
227
228
229
230
231
232
233
234
235
236
237
238
239
240
241
242
243
244
245
246
247
248
249
250
251
252
253
254
255
256
257
258
259
260
261
262
263
264
265
266
267
268
269
270
271
272
273
274
275
276
277
278
279
280
281
282
283
284
285
286
287
288
289
290
291
292
293
294
295
296
297
298
299
300
301
302
303
304
305
306
307
308
309