<?xml version='1.0' encoding='UTF-8'?>
<VTKFile xmlns='VTK' byte_order='LittleEndian' version='0.1' type='UnstructuredGrid'>
<UnstructuredGrid>
<Piece NumberOfCells='584' NumberOfPoints='584'>
<Points>
<DataArray NumberOfComponents='3' type='Float32' Name='Position' format='ascii'>
-0.075000 -0.075000 0.000000
-0.075000 -0.050000 0.000000
-0.075000 -0.025000 0.000000
-0.075000 0.000000 0.000000
-0.075000 0.025000 0.000000
-0.075000 0.050000 0.000000
-0.075000 0.075000 0.000000
-0.075000 0.100000 0.000000
-0.075000 0.125000 0.000000
-0.075000 0.150000 0.000000
-0.075000 0.175000 0.000000
-0.075000 0.200000 0.000000
-0.075000 0.225000 0.000000
-0.075000 0.250000 0.000000
-0.075000 0.275000 0.000000
-0.075000 0.300000 0.000000
-0.075000 0.325000 0.000000
-0.075000 0.350000 0.000000
-0.075000 0.375000 0.000000
-0.075000 0.400000 0.000000
-0.075000 0.425000 0.000000
-0.075000 0.450000 0.000000
-0.075000 0.475000 0.000000
-0.075000 0.500000 0.000000
-0.075000 0.525000 0.000000
-0.075000 0.550000 0.000000
-0.075000 0.575000 0.000000
-0.075000 0.600000 0.000000
-0.050000 -0.075000 0.000000
-0.050000 -0.050000 0.000000
-0.050000 -0.025000 0.000000
-0.050000 0.000000 0.000000
-0.050000 0.025000 0.000000
-0.050000 0.050000 0.000000
-0.050000 0.075000 0.000000
-0.050000 0.100000 0.000000
-0.050000 0.125000 0.000000
-0.050000 0.150000 0.000000
-0.050000 0.175000 0.000000
-0.050000 0.200000 0.000000
-0.050000 0.225000 0.000000
-0.050000 0.250000 0.000000
-0.050000 0.275000 0.000000
-0.050000 0.300000 0.000000
-0.050000 0.325000 0.000000
-0.050000 0.350000 0.000000
-0.050000 0.375000 0.000000
-0.050000 0.400000 0.000000
-0.050000 0.425000 0.000000
-0.050000 0.450000 0.000000
-0.050000 0.475000 0.000000
-0.050000 0.500000 0.000000
-0.050000 0.525000 0.000000
-0.050000 0.550000 0.000000
-0.050000 0.575000 0.000000
-0.050000 0.600000 0.000000
-0.025000 -0.075000 0.000000
-0.025000 -0.050000 0.000000
-0.025000 -0.025000 0.000000
-0.025000 0.000000 0.000000
-0.025000 0.025000 0.000000
-0.025000 0.050000 0.000000
-0.025000 0.075000 0.000000
-0.025000 0.100000 0.000000
-0.025000 0.125000 0.000000
-0.025000 0.150000 0.000000
-0.025000 0.175000 0.000000
-0.025000 0.200000 0.000000
-0.025000 0.225000 0.000000
-0.025000 0.250000 0.000000
-0.025000 0.275000 0.000000
-0.025000 0.300000 0.000000
-0.025000 0.325000 0.000000
-0.025000 0.350000 0.000000
-0.025000 0.375000 0.000000
-0.025000 0.400000 0.000000
-0.025000 0.425000 0.000000
-0.025000 0.450000 0.000000
-0.025000 0.475000 0.000000
-0.025000 0.500000 0.000000
-0.025000 0.525000 0.000000
-0.025000 0.550000 0.000000
-0.025000 0.575000 0.000000
-0.025000 0.600000 0.000000
0.000000 -0.075000 0.000000
0.000000 -0.050000 0.000000
0.000000 -0.025000 0.000000
0.000000 0.000000 0.000000
0.000000 0.025000 0.000000
0.000000 0.050000 0.000000
0.000000 0.075000 0.000000
0.000000 0.100000 0.000000
0.000000 0.125000 0.000000
0.000000 0.150000 0.000000
0.000000 0.175000 0.000000
0.000000 0.200000 0.000000
0.000000 0.225000 0.000000
0.000000 0.250000 0.000000
0.000000 0.275000 0.000000
0.000000 0.300000 0.000000
0.000000 0.325000 0.000000
0.000000 0.350000 0.000000
0.000000 0.375000 0.000000
0.000000 0.400000 0.000000
0.000000 0.425000 0.000000
0.000000 0.450000 0.000000
0.000000 0.475000 0.000000
0.000000 0.500000 0.000000
0.000000 0.525000 0.000000
0.000000 0.550000 0.000000
0.000000 0.575000 0.000000
0.000000 0.600000 0.000000
0.025000 -0.075000 0.000000
0.025000 -0.050000 0.000000
0.025000 -0.025000 0.000000
0.025000 0.000000 0.000000
0.283812 0.042295 0.000000
0.264408 0.025871 0.000000
0.252155 0.057457 0.000000
0.192703 0.022080 0.000000
0.369513 0.024802 0.000000
0.061530 0.020501 0.000000
0.448324 0.024820 0.000000
0.293609 0.022892 0.000000
0.227173 0.024101 0.000000
0.154237 0.047067 0.000000
0.304349 0.043302 0.000000
0.202309 0.055190 0.000000
0.167237 0.026999 0.000000
0.024247 0.025757 0.000000
0.023258 0.051434 0.000000
0.046979 0.038627 0.000000
0.110569 0.021189 0.000000
0.088251 0.029963 0.000000
0.111962 0.048678 0.000000
0.143190 0.024406 0.000000
0.050000 -0.075000 0.000000
0.050000 -0.050000 0.000000
0.050000 -0.025000 0.000000
0.050000 0.000000 0.000000
0.358815 0.050656 0.000000
0.457505 0.170122 0.000000
0.451518 0.149036 0.000000
0.207369 0.176594 0.000000
0.292793 0.132970 0.000000
0.624220 0.055788 0.000000
0.401142 0.109257 0.000000
0.735671 0.046258 0.000000
0.388409 0.036536 0.000000
0.412081 0.081366 0.000000
0.286255 0.112472 0.000000
0.429827 0.055121 0.000000
0.064502 0.061460 0.000000
0.434015 0.078961 0.000000
0.277302 0.076742 0.000000
0.264000 0.093902 0.000000
0.212961 0.045806 0.000000
0.334856 0.019997 0.000000
0.133429 0.047957 0.000000
0.187364 0.049498 0.000000
0.075000 -0.075000 0.000000
0.075000 -0.050000 0.000000
0.075000 -0.025000 0.000000
0.075000 0.000000 0.000000
0.387814 0.081568 0.000000
0.392899 0.147782 0.000000
0.537315 0.022706 0.000000
0.488350 0.021400 0.000000
0.767325 0.095447 0.000000
0.811385 0.027317 0.000000
0.813345 0.052356 0.000000
0.028832 0.066510 0.000000
0.747971 0.085778 0.000000
0.789891 0.050775 0.000000
0.608750 0.029017 0.000000
0.440661 0.134533 0.000000
0.304690 0.069359 0.000000
0.379126 0.062807 0.000000
0.406260 0.022128 0.000000
0.352680 0.072168 0.000000
0.335421 0.039185 0.000000
0.266906 0.117708 0.000000
0.304752 0.095367 0.000000
0.245316 0.030941 0.000000
0.100000 -0.075000 0.000000
0.100000 -0.050000 0.000000
0.100000 -0.025000 0.000000
0.100000 0.000000 0.000000
0.649339 0.025374 0.000000
0.584534 0.022178 0.000000
0.686411 0.075816 0.000000
0.898459 0.024409 0.000000
0.405739 0.057411 0.000000
0.874918 0.025766 0.000000
0.839469 0.095320 0.000000
0.518518 0.133086 0.000000
0.837591 0.021790 0.000000
0.837292 0.051744 0.000000
0.629152 0.031897 0.000000
0.634516 0.077324 0.000000
0.787042 0.073047 0.000000
0.766031 0.045937 0.000000
0.468087 0.081017 0.000000
0.428945 0.031966 0.000000
0.689266 0.020336 0.000000
0.674008 0.117333 0.000000
0.554665 0.053940 0.000000
0.471786 0.057726 0.000000
0.125000 -0.075000 0.000000
0.125000 -0.050000 0.000000
0.125000 -0.025000 0.000000
0.125000 0.000000 0.000000
0.865550 0.064738 0.000000
0.917904 0.103186 0.000000
1.002562 0.108165 0.000000
0.924460 0.026270 0.000000
0.883755 0.166399 0.000000
0.757448 0.024259 0.000000
0.593864 0.088895 0.000000
0.805316 0.128272 0.000000
0.923293 0.084253 0.000000
0.874542 0.101583 0.000000
0.950185 0.070705 0.000000
0.750029 0.182516 0.000000
0.666476 0.034804 0.000000
0.715515 0.056559 0.000000
0.512023 0.031599 0.000000
0.753822 0.063925 0.000000
0.707918 0.101416 0.000000
0.373911 0.124529 0.000000
0.678028 0.053724 0.000000
0.324425 0.121241 0.000000
0.150000 -0.075000 0.000000
0.150000 -0.050000 0.000000
0.150000 -0.025000 0.000000
0.150000 0.000000 0.000000
0.577652 0.125709 0.000000
1.002195 0.029742 0.000000
0.926065 0.172386 0.000000
0.546333 0.081437 0.000000
0.970110 0.042898 0.000000
0.335041 0.130817 0.000000
0.984179 0.095160 0.000000
0.675174 0.092428 0.000000
0.999893 0.076647 0.000000
0.938205 0.130156 0.000000
0.942793 0.049896 0.000000
0.857180 0.036108 0.000000
0.906357 0.047114 0.000000
0.918408 0.065186 0.000000
0.880624 0.081577 0.000000
0.791161 0.102024 0.000000
0.789484 0.023325 0.000000
0.814906 0.103329 0.000000
0.810541 0.080294 0.000000
0.609282 0.072601 0.000000
0.175000 -0.075000 0.000000
0.175000 -0.050000 0.000000
0.175000 -0.025000 0.000000
0.175000 0.000000 0.000000
0.250237 0.107815 0.000000
0.900173 0.144581 0.000000
0.965577 0.153547 0.000000
0.989485 0.128309 0.000000
0.962423 0.129632 0.000000
0.413574 0.128110 0.000000
0.945628 0.024821 0.000000
0.558975 0.143077 0.000000
0.533275 0.052247 0.000000
0.978284 0.022595 0.000000
0.820328 0.153225 0.000000
0.917093 0.129026 0.000000
0.729985 0.170075 0.000000
0.960787 0.094464 0.000000
0.973820 0.067342 0.000000
0.595306 0.053714 0.000000
0.997642 0.053116 0.000000
0.729197 0.102385 0.000000
0.600799 0.129566 0.000000
0.753051 0.143289 0.000000
0.200000 -0.075000 0.000000
0.200000 -0.050000 0.000000
0.200000 -0.025000 0.000000
0.200000 0.000000 0.000000
0.652998 0.103919 0.000000
0.355122 0.144254 0.000000
0.555931 0.096565 0.000000
0.939802 0.163401 0.000000
0.505224 0.067257 0.000000
0.693566 0.141769 0.000000
0.783295 0.126838 0.000000
0.959986 0.176540 0.000000
0.738200 0.124644 0.000000
0.384873 0.104763 0.000000
1.005983 0.154808 0.000000
0.886670 0.060450 0.000000
0.076621 0.049671 0.000000
0.662952 0.068993 0.000000
0.849229 0.112188 0.000000
0.450802 0.125228 0.000000
0.880880 0.132111 0.000000
0.637217 0.110691 0.000000
0.945158 0.108586 0.000000
0.840334 0.072188 0.000000
0.225000 -0.075000 0.000000
0.225000 -0.050000 0.000000
0.225000 -0.025000 0.000000
0.225000 0.000000 0.000000
0.589518 0.168333 0.000000
0.934067 0.810547 0.000000
0.855244 0.136270 0.000000
0.318408 0.082821 0.000000
0.330230 0.063611 0.000000
0.067397 0.078348 0.000000
0.764175 0.119535 0.000000
0.984619 0.148735 0.000000
0.853065 0.157175 0.000000
0.487532 0.094904 0.000000
0.911532 0.171565 0.000000
0.334348 0.159016 0.000000
0.495849 0.050328 0.000000
0.716989 0.075212 0.000000
0.379274 0.147610 0.000000
0.568915 0.094416 0.000000
0.703715 0.036355 0.000000
0.184816 0.137992 0.000000
0.489569 0.169402 0.000000
0.510107 0.143119 0.000000
0.250000 -0.075000 0.000000
0.250000 -0.050000 0.000000
0.250000 -0.025000 0.000000
0.250000 0.000000 0.000000
0.926878 0.295915 0.000000
0.679681 0.229910 0.000000
0.626942 0.099700 0.000000
0.605477 0.153492 0.000000
0.452143 0.393612 0.000000
0.712513 0.121121 0.000000
0.511062 0.159439 0.000000
0.504309 0.085762 0.000000
0.467224 0.032244 0.000000
0.828455 0.133832 0.000000
0.450231 0.078022 0.000000
0.157123 0.185205 0.000000
0.474838 0.145304 0.000000
0.731901 0.022816 0.000000
0.575229 0.054274 0.000000
0.494573 0.109794 0.000000
0.560493 0.027278 0.000000
0.891616 0.111308 0.000000
0.181369 0.171340 0.000000
0.870900 0.168444 0.000000
0.275000 -0.075000 0.000000
0.275000 -0.050000 0.000000
0.275000 -0.025000 0.000000
0.275000 0.000000 0.000000
0.300000 -0.075000 0.000000
0.300000 -0.050000 0.000000
0.300000 -0.025000 0.000000
0.300000 0.000000 0.000000
0.325000 -0.075000 0.000000
0.325000 -0.050000 0.000000
0.325000 -0.025000 0.000000
0.325000 0.000000 0.000000
0.350000 -0.075000 0.000000
0.350000 -0.050000 0.000000
0.350000 -0.025000 0.000000
0.350000 0.000000 0.000000
0.375000 -0.075000 0.000000
0.375000 -0.050000 0.000000
0.375000 -0.025000 0.000000
0.375000 0.000000 0.000000
0.400000 -0.075000 0.000000
0.400000 -0.050000 0.000000
0.400000 -0.025000 0.000000
0.400000 0.000000 0.000000
0.425000 -0.075000 0.000000
0.425000 -0.050000 0.000000
0.425000 -0.025000 0.000000
0.425000 0.000000 0.000000
0.450000 -0.075000 0.000000
0.450000 -0.050000 0.000000
0.450000 -0.025000 0.000000
0.450000 0.000000 0.000000
0.475000 -0.075000 0.000000
0.475000 -0.050000 0.000000
0.475000 -0.025000 0.000000
0.475000 0.000000 0.000000
0.500000 -0.075000 0.000000
0.500000 -0.050000 0.000000
0.500000 -0.025000 0.000000
0.500000 0.000000 0.000000
0.525000 -0.075000 0.000000
0.525000 -0.050000 0.000000
0.525000 -0.025000 0.000000
0.525000 0.000000 0.000000
0.550000 -0.075000 0.000000
0.550000 -0.050000 0.000000
0.550000 -0.025000 0.000000
0.550000 0.000000 0.000000
0.575000 -0.075000 0.000000
0.575000 -0.050000 0.000000
0.575000 -0.025000 0.000000
0.575000 0.000000 0.000000
0.600000 -0.075000 0.000000
0.600000 -0.050000 0.000000
0.600000 -0.025000 0.000000
0.600000 0.000000 0.000000
0.625000 -0.075000 0.000000
0.625000 -0.050000 0.000000
0.625000 -0.025000 0.000000
0.625000 0.000000 0.000000
0.650000 -0.075000 0.000000
0.650000 -0.050000 0.000000
0.650000 -0.025000 0.000000
0.650000 0.000000 0.000000
0.675000 -0.075000 0.000000
0.675000 -0.050000 0.000000
0.675000 -0.025000 0.000000
0.675000 0.000000 0.000000
0.700000 -0.075000 0.000000
0.700000 -0.050000 0.000000
0.700000 -0.025000 0.000000
0.700000 0.000000 0.000000
0.725000 -0.075000 0.000000
0.725000 -0.050000 0.000000
0.725000 -0.025000 0.000000
0.725000 0.000000 0.000000
0.750000 -0.075000 0.000000
0.750000 -0.050000 0.000000
0.750000 -0.025000 0.000000
0.750000 0.000000 0.000000
0.775000 -0.075000 0.000000
0.775000 -0.050000 0.000000
0.775000 -0.025000 0.000000
0.775000 0.000000 0.000000
0.800000 -0.075000 0.000000
0.800000 -0.050000 0.000000
0.800000 -0.025000 0.000000
0.800000 0.000000 0.000000
0.825000 -0.075000 0.000000
0.825000 -0.050000 0.000000
0.825000 -0.025000 0.000000
0.825000 0.000000 0.000000
0.850000 -0.075000 0.000000
0.850000 -0.050000 0.000000
0.850000 -0.025000 0.000000
0.850000 0.000000 0.000000
0.875000 -0.075000 0.000000
0.875000 -0.050000 0.000000
0.875000 -0.025000 0.000000
0.875000 0.000000 0.000000
0.900000 -0.075000 0.000000
0.900000 -0.050000 0.000000
0.900000 -0.025000 0.000000
0.900000 0.000000 0.000000
0.925000 -0.075000 0.000000
0.925000 -0.050000 0.000000
0.925000 -0.025000 0.000000
0.925000 0.000000 0.000000
0.950000 -0.075000 0.000000
0.950000 -0.050000 0.000000
0.950000 -0.025000 0.000000
0.950000 0.000000 0.000000
0.975000 -0.075000 0.000000
0.975000 -0.050000 0.000000
0.975000 -0.025000 0.000000
0.975000 0.000000 0.000000
1.000000 -0.075000 0.000000
1.000000 -0.050000 0.000000
1.000000 -0.025000 0.000000
1.000000 0.000000 0.000000
1.025000 -0.075000 0.000000
1.025000 -0.050000 0.000000
1.025000 -0.025000 0.000000
1.025000 0.000000 0.000000
1.025000 0.025000 0.000000
1.025000 0.050000 0.000000
1.025000 0.075000 0.000000
1.025000 0.100000 0.000000
1.025000 0.125000 0.000000
1.025000 0.150000 0.000000
1.025000 0.175000 0.000000
1.025000 0.200000 0.000000
1.025000 0.225000 0.000000
1.025000 0.250000 0.000000
1.025000 0.275000 0.000000
1.025000 0.300000 0.000000
1.025000 0.325000 0.000000
1.025000 0.350000 0.000000
1.025000 0.375000 0.000000
1.025000 0.400000 0.000000
1.025000 0.425000 0.000000
1.025000 0.450000 0.000000
1.025000 0.475000 0.000000
1.025000 0.500000 0.000000
1.025000 0.525000 0.000000
1.025000 0.550000 0.000000
1.025000 0.575000 0.000000
1.025000 0.600000 0.000000
1.050000 -0.075000 0.000000
1.050000 -0.050000 0.000000
1.050000 -0.025000 0.000000
1.050000 0.000000 0.000000
1.050000 0.025000 0.000000
1.050000 0.050000 0.000000
1.050000 0.075000 0.000000
1.050000 0.100000 0.000000
1.050000 0.125000 0.000000
1.050000 0.150000 0.000000
1.050000 0.175000 0.000000
1.050000 0.200000 0.000000
1.050000 0.225000 0.000000
1.050000 0.250000 0.000000
1.050000 0.275000 0.000000
1.050000 0.300000 0.000000
1.050000 0.325000 0.000000
1.050000 0.350000 0.000000
1.050000 0.375000 0.000000
1.050000 0.400000 0.000000
1.050000 0.425000 0.000000
1.050000 0.450000 0.000000
1.050000 0.475000 0.000000
1.050000 0.500000 0.000000
1.050000 0.525000 0.000000
1.050000 0.550000 0.000000
1.050000 0.575000 0.000000
1.050000 0.600000 0.000000
1.075000 -0.075000 0.000000
1.075000 -0.050000 0.000000
1.075000 -0.025000 0.000000
1.075000 0.000000 0.000000
1.075000 0.025000 0.000000
1.075000 0.050000 0.000000
1.075000 0.075000 0.000000
1.075000 0.100000 0.000000
1.075000 0.125000 0.000000
1.075000 0.150000 0.000000
1.075000 0.175000 0.000000
1.075000 0.200000 0.000000
1.075000 0.225000 0.000000
1.075000 0.250000 0.000000
1.075000 0.275000 0.000000
1.075000 0.300000 0.000000
1.075000 0.325000 0.000000
1.075000 0.350000 0.000000
1.075000 0.375000 0.000000
1.075000 0.400000 0.000000
1.075000 0.425000 0.000000
1.075000 0.450000 0.000000
1.075000 0.475000 0.000000
1.075000 0.500000 0.000000
1.075000 0.525000 0.000000
1.075000 0.550000 0.000000
1.075000 0.575000 0.000000
1.075000 0.600000 0.000000
1.100000 -0.075000 0.000000
1.100000 -0.050000 0.000000
1.100000 -0.025000 0.000000
1.100000 0.000000 0.000000
1.100000 0.025000 0.000000
1.100000 0.050000 0.000000
1.100000 0.075000 0.000000
1.100000 0.100000 0.000000
1.100000 0.125000 0.000000
1.100000 0.150000 0.000000
1.100000 0.175000 0.000000
1.100000 0.200000 0.000000
1.100000 0.225000 0.000000
1.100000 0.250000 0.000000
1.100000 0.275000 0.000000
1.100000 0.300000 0.000000
1.100000 0.325000 0.000000
1.100000 0.350000 0.000000
1.100000 0.375000 0.000000
1.100000 0.400000 0.000000
1.100000 0.425000 0.000000
1.100000 0.450000 0.000000
1.100000 0.475000 0.000000
1.100000 0.500000 0.000000
1.100000 0.525000 0.000000
1.100000 0.550000 0.000000
1.100000 0.575000 0.000000
1.100000 0.600000 0.000000
</DataArray>
</Points>
<PointData>
<DataArray NumberOfComponents='1' type='Int32' Name='ParticleType' format='ascii'>
3
3
3
3
3
3
3
3
3
3
3
3
3
3
3
3
3
3
3
3
3
3
3
3
3
3
2
2
3
3
3
3
3
3
3
3
3
3
3
3
3
3
3
3
3
3
3
3
3
3
3
3
3
3
2
2
3
3
2
2
2
2
2
2
2
2
2
2
2
2
2
2
2
2
2
2
2
2
2
2
2
2
2
2
3
3
2
2
2
2
2
2
2
2
2
2
2
2
2
2
2
2
2
2
2
2
2
2
2
2
2
2
3
3
2
2
0
0
0
0
0
0
0
0
0
0
0
0
0
0
0
0
0
0
0
0
3
3
2
2
0
0
0
0
0
0
0
0
0
0
0
0
0
0
0
0
0
0
0
0
3
3
2
2
0
0
0
0
0
0
0
0
0
0
0
0
0
0
0
0
0
0
0
0
3
3
2
2
0
0
0
0
0
0
0
0
0
0
0
0
0
0
0
0
0
0
0
0
3
3
2
2
0
0
0
0
0
0
0
0
0
0
0
0
0
0
0
0
0
0
0
0
3
3
2
2
0
0
0
0
0
0
0
0
0
0
0
0
0
0
0
0
0
0
0
0
3
3
2
2
0
0
0
0
0
0
0
0
0
0
0
0
0
0
0
0
0
0
0
0
3
3
2
2
0
0
0
0
0
0
0
0
0
0
0
0
0
0
0
0
0
0
0
0
3
3
2
2
0
0
0
0
0
0
0
0
0
0
0
0
0
0
0
0
0
0
0
0
3
3
2
2
0
0
0
0
0
0
0
0
0
0
0
0
0
0
0
0
0
0
0
0
3
3
2
2
3
3
2
2
3
3
2
2
3
3
2
2
3
3
2
2
3
3
2
2
3
3
2
2
3
3
2
2
3
3
2
2
3
3
2
2
3
3
2
2
3
3
2
2
3
3
2
2
3
3
2
2
3
3
2
2
3
3
2
2
3
3
2
2
3
3
2
2
3
3
2
2
3
3
2
2
3
3
2
2
3
3
2
2
3
3
2
2
3
3
2
2
3
3
2
2
3
3
2
2
3
3
2
2
3
3
2
2
3
3
2
2
3
3
2
2
3
3
2
2
2
2
2
2
2
2
2
2
2
2
2
2
2
2
2
2
2
2
2
2
2
2
2
2
3
3
2
2
2
2
2
2
2
2
2
2
2
2
2
2
2
2
2
2
2
2
2
2
2
2
2
2
3
3
3
3
3
3
3
3
3
3
3
3
3
3
3
3
3
3
3
3
3
3
3
3
3
3
2
2
3
3
3
3
3
3
3
3
3
3
3
3
3
3
3
3
3
3
3
3
3
3
3
3
3
3
2
2
</DataArray>
<DataArray NumberOfComponents='1' type='Float32' Name='Velocity' format='ascii'>
0.000000
0.000000
0.000000
0.000000
0.000000
0.000000
0.000000
0.000000
0.000000
0.000000
0.000000
0.000000
0.000000
0.000000
0.000000
0.000000
0.000000
0.000000
0.000000
0.000000
0.000000
0.000000
0.000000
0.000000
0.000000
0.000000
0.000000
0.000000
0.000000
0.000000
0.000000
0.000000
0.000000
0.000000
0.000000
0.000000
0.000000
0.000000
0.000000
0.000000
0.000000
0.000000
0.000000
0.000000
0.000000
0.000000
0.000000
0.000000
0.000000
0.000000
0.000000
0.000000
0.000000
0.000000
0.000000
0.000000
0.000000
0.000000
0.000000
0.000000
0.000000
0.000000
0.000000
0.000000
0.000000
0.000000
0.000000
0.000000
0.000000
0.000000
0.000000
0.000000
0.000000
0.000000
0.000000
0.000000
0.000000
0.000000
0.000000
0.000000
0.000000
0.000000
0.000000
0.000000
0.000000
0.000000
0.000000
0.000000
0.000000
0.000000
0.000000
0.000000
0.000000
0.000000
0.000000
0.000000
0.000000
0.000000
0.000000
0.000000
0.000000
0.000000
0.000000
0.000000
0.000000
0.000000
0.000000
0.000000
0.000000
0.000000
0.000000
0.000000
0.000000
0.000000
0.000000
0.000000
0.461410
0.263171
0.601777
0.114676
0.329075
0.768296
0.396096
0.487759
0.228474
0.300248
0.588064
0.247898
0.258548
0.538822
0.881587
0.310378
0.324526
0.414176
0.604211
0.154343
0.000000
0.000000
0.000000
0.000000
0.323257
1.761797
1.308188
2.334166
2.216231
0.469027
1.382851
0.517074
0.646921
0.644564
1.397737
0.485128
1.007475
0.642781
0.584734
1.405789
0.158881
0.140561
0.261017
0.121625
0.000000
0.000000
0.000000
0.000000
0.218000
1.664786
0.439293
0.297004
0.526945
0.605560
0.157544
2.673856
0.756621
0.196175
0.671951
1.376021
0.758425
0.274225
0.453384
1.657402
0.212938
1.613611
1.490807
0.342544
0.000000
0.000000
0.000000
0.000000
0.795467
0.580230
0.946962
0.218059
0.590876
0.117673
0.445542
1.869029
0.295699
0.340887
0.545012
0.811169
0.509949
0.492824
0.495352
0.538557
0.518788
1.170923
0.792701
0.952235
0.000000
0.000000
0.000000
0.000000
0.550443
0.214131
0.218125
0.355926
0.784453
0.232384
0.572779
0.756270
0.044305
0.258123
0.197387
0.479839
0.505047
0.456450
0.778791
0.531963
0.679888
1.973794
0.212064
1.518792
0.000000
0.000000
0.000000
0.000000
1.554572
0.239963
0.891406
1.068274
0.292104
1.867117
0.330609
0.956080
0.328544
0.419242
0.338445
0.374173
0.492934
0.330865
0.352194
0.400796
0.610838
0.689555
0.634044
0.953340
0.000000
0.000000
0.000000
0.000000
1.739625
1.035057
0.522796
0.178851
0.236884
1.331207
0.289622
2.363789
0.489196
0.238298
0.426647
0.036617
0.615033
0.052243
0.288949
0.426213
0.400672
0.762577
1.949741
0.907884
0.000000
0.000000
0.000000
0.000000
1.027928
1.649500
1.063341
0.567589
0.897642
1.191315
0.954677
1.496089
0.986799
1.088016
0.580242
0.883662
1.581968
0.894642
0.589580
1.608990
0.400104
0.902272
0.257073
0.522315
0.000000
0.000000
0.000000
0.000000
1.341198
3.101484
0.851660
1.191686
0.424041
2.632473
1.097201
0.320544
0.848788
1.113395
0.701372
1.248565
0.643612
0.732353
1.716311
0.988012
0.367032
2.831517
0.930954
1.920781
0.000000
0.000000
0.000000
0.000000
3.835036
3.821330
1.119259
1.365318
3.736073
1.014331
1.123259
1.151101
0.480472
0.901551
0.856827
2.639625
1.872461
0.235320
0.599573
1.195903
0.302173
0.307864
2.374406
0.910972
0.000000
0.000000
0.000000
0.000000
0.000000
0.000000
0.000000
0.000000
0.000000
0.000000
0.000000
0.000000
0.000000
0.000000
0.000000
0.000000
0.000000
0.000000
0.000000
0.000000
0.000000
0.000000
0.000000
0.000000
0.000000
0.000000
0.000000
0.000000
0.000000
0.000000
0.000000
0.000000
0.000000
0.000000
0.000000
0.000000
0.000000
0.000000
0.000000
0.000000
0.000000
0.000000
0.000000
0.000000
0.000000
0.000000
0.000000
0.000000
0.000000
0.000000
0.000000
0.000000
0.000000
0.000000
0.000000
0.000000
0.000000
0.000000
0.000000
0.000000
0.000000
0.000000
0.000000
0.000000
0.000000
0.000000
0.000000
0.000000
0.000000
0.000000
0.000000
0.000000
0.000000
0.000000
0.000000
0.000000
0.000000
0.000000
0.000000
0.000000
0.000000
0.000000
0.000000
0.000000
0.000000
0.000000
0.000000
0.000000
0.000000
0.000000
0.000000
0.000000
0.000000
0.000000
0.000000
0.000000
0.000000
0.000000
0.000000
0.000000
0.000000
0.000000
0.000000
0.000000
0.000000
0.000000
0.000000
0.000000
0.000000
0.000000
0.000000
0.000000
0.000000
0.000000
0.000000
0.000000
0.000000
0.000000
0.000000
0.000000
0.000000
0.000000
0.000000
0.000000
0.000000
0.000000
0.000000
0.000000
0.000000
0.000000
0.000000
0.000000
0.000000
0.000000
0.000000
0.000000
0.000000
0.000000
0.000000
0.000000
0.000000
0.000000
0.000000
0.000000
0.000000
0.000000
0.000000
0.000000
0.000000
0.000000
0.000000
0.000000
0.000000
0.000000
0.000000
0.000000
0.000000
0.000000
0.000000
0.000000
0.000000
0.000000
0.000000
0.000000
0.000000
0.000000
0.000000
0.000000
0.000000
0.000000
0.000000
0.000000
0.000000
0.000000
0.000000
0.000000
0.000000
0.000000
0.000000
0.000000
0.000000
0.000000
0.000000
0.000000
0.000000
0.000000
0.000000
0.000000
0.000000
0.000000
0.000000
0.000000
0.000000
0.000000
0.000000
0.000000
0.000000
0.000000
0.000000
0.000000
0.000000
0.000000
0.000000
0.000000
0.000000
0.000000
0.000000
0.000000
0.000000
0.000000
0.000000
0.000000
0.000000
0.000000
0.000000
0.000000
0.000000
0.000000
0.000000
0.000000
0.000000
0.000000
0.000000
0.000000
0.000000
0.000000
0.000000
0.000000
0.000000
0.000000
0.000000
0.000000
</DataArray>
<DataArray NumberOfComponents='1' type='Float32' Name='pressure' format='ascii'>
0.000000
0.000000
0.000000
0.000000
0.000000
0.000000
0.000000
0.000000
0.000000
0.000000
0.000000
0.000000
0.000000
0.000000
0.000000
0.000000
0.000000
0.000000
0.000000
0.000000
0.000000
0.000000
0.000000
0.000000
0.000000
0.000000
0.000000
0.000000
0.000000
0.000000
0.000000
0.000000
0.000000
0.000000
0.000000
0.000000
0.000000
0.000000
0.000000
0.000000
0.000000
0.000000
0.000000
0.000000
0.000000
0.000000
0.000000
0.000000
0.000000
0.000000
0.000000
0.000000
0.000000
0.000000
0.000000
0.000000
0.000000
0.000000
4897.867676
5320.686523
5863.711426
5399.745605
1778.440674
0.000000
0.000000
0.000000
0.000000
0.000000
0.000000
0.000000
0.000000
0.000000
0.000000
0.000000
0.000000
0.000000
0.000000
0.000000
0.000000
0.000000
0.000000
0.000000
0.000000
0.000000
0.000000
0.000000
4538.893555
4935.964844
7183.063477
9098.152344
0.000000
0.000000
0.000000
0.000000
0.000000
0.000000
0.000000
0.000000
0.000000
0.000000
0.000000
0.000000
0.000000
0.000000
0.000000
0.000000
0.000000
0.000000
0.000000
0.000000
0.000000
0.000000
0.000000
0.000000
3748.050781
2563.742188
0.000000
1875.760620
0.000000
0.000000
0.000000
2697.804199
1829.524048
1441.861328
1238.824707
0.000000
10.149573
0.000000
0.000000
4369.062012
9973.555664
2501.629883
0.000000
0.000000
0.000000
20.989292
0.000000
0.000000
4614.550293
3152.397949
0.000000
0.000000
0.000000
0.000000
0.000000
0.000000
0.000000
1390.477783
341.459167
0.000000
0.000000
1158.712646
0.000000
0.000000
0.000000
0.000000
0.000000
1003.865417
0.000000
0.000000
0.000000
0.000000
3800.902100
2910.416504
1230.708862
0.000000
0.000000
1876.772705
526.308777
561.674561
999.335205
0.000000
191.571060
975.214783
645.442749
711.365417
3578.322021
2091.448242
1829.104492
0.000000
0.000000
0.000000
0.000000
515.871521
0.000000
0.000000
2906.896484
1764.232300
1352.345581
386.200287
1189.373657
1644.122314
2334.945068
1106.880737
582.959229
0.000000
1305.212036
1317.600342
1193.966431
0.000000
0.000000
1621.229980
728.417358
1141.057251
2810.181885
0.000000
0.000000
0.000000
0.000000
0.000000
1573.162476
0.000000
183.997498
844.278442
1050.947876
1936.423462
49.937233
159.449097
0.000000
0.000000
1828.030273
2317.715088
1496.254761
0.000000
639.571777
1957.285278
0.000000
674.042175
0.000000
0.000000
247.882187
0.000000
0.000000
0.000000
477.482513
119.922585
0.000000
1754.747559
318.596161
0.000000
827.160828
0.000000
1316.889404
0.000000
1779.070068
1704.489746
404.937408
1896.867310
1996.985962
147.131149
1297.884155
1520.222290
535.875122
959.964111
0.000000
321.180573
0.000000
0.000000
166.235992
0.000000
0.000000
343.319397
646.975281
1691.003662
1621.546875
0.000000
1234.511108
0.000000
0.000000
1113.313965
0.000000
889.937256
0.000000
891.122803
956.059326
1186.727661
956.797241
2054.550781
0.000000
0.000000
0.000000
0.000000
1140.045776
0.000000
0.000000
0.000000
0.000000
341.058746
1268.793335
0.000000
0.000000
0.000000
0.000000
0.000000
0.000000
508.063263
0.000000
0.000000
299.478790
0.000000
1561.007080
0.000000
2161.181885
930.605408
0.000000
0.000000
781.932129
837.302185
0.000000
0.000000
1004.821594
1451.878418
0.000000
0.000000
0.000000
1969.430176
0.000000
2076.656494
0.000000
0.000000
1161.098999
0.000000
0.000000
900.117493
0.000000
0.000000
0.000000
6872.575684
0.000000
0.000000
0.000000
413.275604
0.000000
0.000000
595.445496
0.000000
0.000000
0.000000
0.000000
0.000000
0.000000
0.000000
611.861267
0.000000
0.000000
920.695496
125.739639
0.000000
464.837799
267.467773
0.000000
0.000000
0.000000
0.000000
486.482025
583.793274
0.000000
0.000000
1635.187012
413.160248
0.000000
0.000000
2559.864746
915.447693
0.000000
0.000000
1831.171265
0.000000
0.000000
0.000000
834.005920
0.000000
0.000000
0.000000
1906.896240
1914.976685
0.000000
0.000000
1113.289307
0.000000
0.000000
0.000000
1696.526001
2233.531494
0.000000
0.000000
2282.076416
2214.519287
0.000000
0.000000
2131.410156
817.034241
0.000000
0.000000
1301.815430
0.000000
0.000000
0.000000
1227.562988
1164.344849
0.000000
0.000000
1528.832764
2130.968018
0.000000
0.000000
619.234863
0.000000
0.000000
0.000000
0.000000
0.000000
0.000000
0.000000
959.533203
75.779724
0.000000
0.000000
2841.819092
2287.300781
0.000000
0.000000
3642.538818
2400.478760
0.000000
0.000000
2856.971924
1958.248413
0.000000
0.000000
2256.110840
2056.036133
0.000000
0.000000
1239.173096
0.000000
0.000000
0.000000
1467.693970
1052.362549
0.000000
0.000000
1973.383545
1358.034668
0.000000
0.000000
2099.396484
1174.935181
0.000000
0.000000
1364.855225
1365.404663
0.000000
0.000000
1737.393921
2298.916992
0.000000
0.000000
1030.861938
1455.150879
0.000000
0.000000
1138.512573
1142.036011
0.000000
0.000000
1415.570679
1432.198120
0.000000
0.000000
0.000000
0.000000
0.000000
0.000000
0.000000
0.000000
1494.168091
302.508514
998.240173
1935.948608
298.765625
4329.335449
0.000000
0.000000
0.000000
0.000000
0.000000
0.000000
0.000000
0.000000
0.000000
0.000000
0.000000
0.000000
0.000000
0.000000
0.000000
0.000000
0.000000
0.000000
0.000000
0.000000
0.000000
222.486374
1247.875610
333.678955
1175.858398
2260.284668
1941.681519
4213.163574
1843.537842
0.000000
0.000000
0.000000
0.000000
0.000000
0.000000
0.000000
0.000000
0.000000
0.000000
0.000000
0.000000
0.000000
0.000000
0.000000
0.000000
0.000000
0.000000
0.000000
0.000000
0.000000
0.000000
0.000000
0.000000
0.000000
0.000000
0.000000
0.000000
0.000000
0.000000
0.000000
0.000000
0.000000
0.000000
0.000000
0.000000
0.000000
0.000000
0.000000
0.000000
0.000000
0.000000
0.000000
0.000000
0.000000
0.000000
0.000000
0.000000
0.000000
0.000000
0.000000
0.000000
0.000000
0.000000
0.000000
0.000000
0.000000
0.000000
0.000000
0.000000
0.000000
0.000000
0.000000
0.000000
0.000000
0.000000
0.000000
0.000000
0.000000
0.000000
0.000000
0.000000
0.000000
</DataArray>
</PointData>
<Cells>
<DataArray type='Int32' Name='connectivity' format='ascii'>
0
1
2
3
4
5
6
7
8
9
10
11
12
13
14
15
16
17
18
19
20
21
22
23
24
25
26
27
28
29
30
31
32
33
34
35
36
37
38
39
40
41
42
43
44
45
46
47
48
49
50
51
52
53
54
55
56
57
58
59
60
61
62
63
64
65
66
67
68
69
70
71
72
73
74
75
76
77
78
79
80
81
82
83
84
85
86
87
88
89
90
91
92
93
94
95
96
97
98
99
100
101
102
103
104
105
106
107
108
109
110
111
112
113
114
115
116
117
118
119
120
121
122
123
124
125
126
127
128
129
130
131
132
133
134
135
136
137
138
139
140
141
142
143
144
145
146
147
148
149
150
151
152
153
154
155
156
157
158
159
160
161
162
163
164
165
166
167
168
169
170
171
172
173
174
175
176
177
178
179
180
181
182
183
184
185
186
187
188
189
190
191
192
193
194
195
196
197
198
199
200
201
202
203
204
205
206
207
208
209
210
211
212
213
214
215
216
217
218
219
220
221
222
223
224
225
226
227
228
229
230
231
232
233
234
235
236
237
238
239
240
241
242
243
244
245
246
247
248
249
250
251
252
253
254
255
256
257
258
259
260
261
262
263
264
265
266
267
268
269
270
271
272
273
274
275
276
277
278
279
280
281
282
283
284
285
286
287
288
289
290
291
292
293
294
295
296
297
298
299
300
301
302
303
304
305
306
307
308
309
310
311