<?xml version='1.0' encoding='UTF-8'?>
<VTKFile xmlns='VTK' byte_order='LittleEndian' version='0.1' type='UnstructuredGrid'>
<UnstructuredGrid>
<Piece NumberOfCells='584' NumberOfPoints='584'>
<Points>
<DataArray NumberOfComponents='3' type='Float32' Name='Position' format='ascii'>
-0.075000 -0.075000 0.000000
-0.075000 -0.050000 0.000000
-0.075000 -0.025000 0.000000
-0.075000 0.000000 0.000000
-0.075000 0.025000 0.000000
-0.075000 0.050000 0.000000
-0.075000 0.075000 0.000000
-0.075000 0.100000 0.000000
-0.075000 0.125000 0.000000
-0.075000 0.150000 0.000000
-0.075000 0.175000 0.000000
-0.075000 0.200000 0.000000
-0.075000 0.225000 0.000000
-0.075000 0.250000 0.000000
-0.075000 0.275000 0.000000
-0.075000 0.300000 0.000000
-0.075000 0.325000 0.000000
-0.075000 0.350000 0.000000
-0.075000 0.375000 0.000000
-0.075000 0.400000 0.000000
-0.075000 0.425000 0.000000
-0.075000 0.450000 0.000000
-0.075000 0.475000 0.000000
-0.075000 0.500000 0.000000
-0.075000 0.525000 0.000000
-0.075000 0.550000 0.000000
-0.075000 0.575000 0.000000
-0.075000 0.600000 0.000000
-0.050000 -0.075000 0.000000
-0.050000 -0.050000 0.000000
-0.050000 -0.025000 0.000000
-0.050000 0.000000 0.000000
-0.050000 0.025000 0.000000
-0.050000 0.050000 0.000000
-0.050000 0.075000 0.000000
-0.050000 0.100000 0.000000
-0.050000 0.125000 0.000000
-0.050000 0.150000 0.000000
-0.050000 0.175000 0.000000
-0.050000 0.200000 0.000000
-0.050000 0.225000 0.000000
-0.050000 0.250000 0.000000
-0.050000 0.275000 0.000000
-0.050000 0.300000 0.000000
-0.050000 0.325000 0.000000
-0.050000 0.350000 0.000000
-0.050000 0.375000 0.000000
-0.050000 0.400000 0.000000
-0.050000 0.425000 0.000000
-0.050000 0.450000 0.000000
-0.050000 0.475000 0.000000
-0.050000 0.500000 0.000000
-0.050000 0.525000 0.000000
-0.050000 0.550000 0.000000
-0.050000 0.575000 0.000000
-0.050000 0.600000 0.000000
-0.025000 -0.075000 0.000000
-0.025000 -0.050000 0.000000
-0.025000 -0.025000 0.000000
-0.025000 0.000000 0.000000
-0.025000 0.025000 0.000000
-0.025000 0.050000 0.000000
-0.025000 0.075000 0.000000
-0.025000 0.100000 0.000000
-0.025000 0.125000 0.000000
-0.025000 0.150000 0.000000
-0.025000 0.175000 0.000000
-0.025000 0.200000 0.000000
-0.025000 0.225000 0.000000
-0.025000 0.250000 0.000000
-0.025000 0.275000 0.000000
-0.025000 0.300000 0.000000
-0.025000 0.325000 0.000000
-0.025000 0.350000 0.000000
-0.025000 0.375000 0.000000
-0.025000 0.400000 0.000000
-0.025000 0.425000 0.000000
-0.025000 0.450000 0.000000
-0.025000 0.475000 0.000000
-0.025000 0.500000 0.000000
-0.025000 0.525000 0.000000
-0.025000 0.550000 0.000000
-0.025000 0.575000 0.000000
-0.025000 0.600000 0.000000
0.000000 -0.075000 0.000000
0.000000 -0.050000 0.000000
0.000000 -0.025000 0.000000
0.000000 0.000000 0.000000
0.000000 0.025000 0.000000
0.000000 0.050000 0.000000
0.000000 0.075000 0.000000
0.000000 0.100000 0.000000
0.000000 0.125000 0.000000
0.000000 0.150000 0.000000
0.000000 0.175000 0.000000
0.000000 0.200000 0.000000
0.000000 0.225000 0.000000
0.000000 0.250000 0.000000
0.000000 0.275000 0.000000
0.000000 0.300000 0.000000
0.000000 0.325000 0.000000
0.000000 0.350000 0.000000
0.000000 0.375000 0.000000
0.000000 0.400000 0.000000
0.000000 0.425000 0.000000
0.000000 0.450000 0.000000
0.000000 0.475000 0.000000
0.000000 0.500000 0.000000
0.000000 0.525000 0.000000
0.000000 0.550000 0.000000
0.000000 0.575000 0.000000
0.000000 0.600000 0.000000
0.025000 -0.075000 0.000000
0.025000 -0.050000 0.000000
0.025000 -0.025000 0.000000
0.025000 0.000000 0.000000
0.077508 0.023744 0.000000
0.037443 0.021752 0.000000
0.050313 0.036042 0.000000
0.020675 0.042239 0.000000
0.074779 0.043821 0.000000
0.026319 0.065138 0.000000
0.084534 0.073085 0.000000
0.065346 0.063115 0.000000
0.061227 0.085366 0.000000
0.033779 0.081999 0.000000
0.065510 0.115037 0.000000
0.037472 0.102173 0.000000
0.022165 0.118098 0.000000
0.024452 0.145070 0.000000
0.026491 0.167746 0.000000
0.025165 0.194088 0.000000
0.043744 0.212617 0.000000
0.022441 0.224508 0.000000
0.034868 0.254631 0.000000
0.021932 0.262493 0.000000
0.050000 -0.075000 0.000000
0.050000 -0.050000 0.000000
0.050000 -0.025000 0.000000
0.050000 0.000000 0.000000
0.124894 0.021993 0.000000
0.102002 0.029101 0.000000
0.118161 0.045117 0.000000
0.182120 0.071990 0.000000
0.114985 0.065292 0.000000
0.128881 0.082244 0.000000
0.103650 0.088342 0.000000
0.140076 0.108088 0.000000
0.085088 0.102918 0.000000
0.111661 0.111544 0.000000
0.079097 0.134560 0.000000
0.099906 0.140363 0.000000
0.049182 0.132125 0.000000
0.082595 0.160124 0.000000
0.051722 0.153215 0.000000
0.070385 0.177262 0.000000
0.047691 0.182425 0.000000
0.065011 0.202203 0.000000
0.048194 0.235879 0.000000
0.062408 0.254371 0.000000
0.075000 -0.075000 0.000000
0.075000 -0.050000 0.000000
0.075000 -0.025000 0.000000
0.075000 0.000000 0.000000
0.155915 0.026580 0.000000
0.152515 0.067095 0.000000
0.192539 0.019530 0.000000
0.148868 0.045065 0.000000
0.191978 0.054518 0.000000
0.228834 0.065227 0.000000
0.246222 0.088003 0.000000
0.159707 0.086334 0.000000
0.202182 0.085128 0.000000
0.152825 0.122984 0.000000
0.178640 0.127407 0.000000
0.126182 0.129085 0.000000
0.131117 0.151019 0.000000
0.107760 0.164021 0.000000
0.098897 0.197493 0.000000
0.084775 0.214498 0.000000
0.115068 0.212748 0.000000
0.091928 0.235036 0.000000
0.118075 0.253053 0.000000
0.081823 0.248625 0.000000
0.100000 -0.075000 0.000000
0.100000 -0.050000 0.000000
0.100000 -0.025000 0.000000
0.100000 0.000000 0.000000
0.245374 0.023780 0.000000
0.222461 0.027531 0.000000
0.217232 0.048943 0.000000
0.278983 0.056898 0.000000
0.177463 0.036408 0.000000
0.297364 0.041908 0.000000
0.252537 0.055819 0.000000
0.265565 0.078089 0.000000
0.223688 0.093815 0.000000
0.254885 0.126921 0.000000
0.178471 0.101549 0.000000
0.221782 0.115513 0.000000
0.197296 0.116583 0.000000
0.187608 0.146935 0.000000
0.150642 0.160520 0.000000
0.118428 0.182668 0.000000
0.153470 0.182889 0.000000
0.138346 0.196457 0.000000
0.145031 0.232172 0.000000
0.129558 0.232821 0.000000
0.125000 -0.075000 0.000000
0.125000 -0.050000 0.000000
0.125000 -0.025000 0.000000
0.125000 0.000000 0.000000
0.339417 0.022265 0.000000
0.287872 0.021083 0.000000
0.395997 0.021221 0.000000
0.374658 0.026366 0.000000
0.400639 0.047186 0.000000
0.263576 0.035625 0.000000
0.318039 0.026730 0.000000
0.325792 0.053203 0.000000
0.298004 0.085502 0.000000
0.266302 0.105364 0.000000
0.290409 0.104837 0.000000
0.278510 0.126116 0.000000
0.230228 0.135607 0.000000
0.199343 0.166451 0.000000
0.193064 0.191958 0.000000
0.170433 0.163663 0.000000
0.226564 0.192641 0.000000
0.174799 0.206432 0.000000
0.191488 0.223499 0.000000
0.161414 0.218661 0.000000
0.150000 -0.075000 0.000000
0.150000 -0.050000 0.000000
0.150000 -0.025000 0.000000
0.150000 0.000000 0.000000
0.488191 0.021293 0.000000
0.438467 0.020328 0.000000
0.477876 0.038594 0.000000
0.423045 0.045175 0.000000
0.452809 0.033525 0.000000
0.515300 0.046495 0.000000
0.370747 0.057029 0.000000
0.434808 0.059171 0.000000
0.357576 0.042902 0.000000
0.397641 0.068798 0.000000
0.345780 0.066663 0.000000
0.310461 0.067720 0.000000
0.332745 0.087431 0.000000
0.314798 0.128572 0.000000
0.280977 0.149110 0.000000
0.247788 0.150015 0.000000
0.215547 0.154855 0.000000
0.242820 0.170992 0.000000
0.235566 0.210075 0.000000
0.210532 0.201262 0.000000
0.175000 -0.075000 0.000000
0.175000 -0.050000 0.000000
0.175000 -0.025000 0.000000
0.175000 0.000000 0.000000
0.621858 0.037782 0.000000
0.540263 0.026515 0.000000
0.586891 0.045336 0.000000
0.607338 0.028990 0.000000
0.578099 0.022150 0.000000
0.519099 0.024416 0.000000
0.560709 0.036054 0.000000
0.552159 0.060853 0.000000
0.481058 0.058573 0.000000
0.522523 0.062650 0.000000
0.415435 0.080964 0.000000
0.431471 0.091894 0.000000
0.362890 0.088105 0.000000
0.369587 0.106061 0.000000
0.321439 0.103870 0.000000
0.336621 0.120556 0.000000
0.321084 0.146300 0.000000
0.288296 0.166131 0.000000
0.282013 0.184312 0.000000
0.263062 0.183931 0.000000
0.200000 -0.075000 0.000000
0.200000 -0.050000 0.000000
0.200000 -0.025000 0.000000
0.200000 0.000000 0.000000
0.849950 0.043519 0.000000
0.707340 0.023078 0.000000
0.793294 0.042098 0.000000
0.653743 0.023546 0.000000
0.765622 0.022274 0.000000
0.737508 0.023526 0.000000
0.675186 0.023733 0.000000
0.641199 0.041821 0.000000
0.586738 0.064112 0.000000
0.582182 0.091139 0.000000
0.543061 0.076883 0.000000
0.461580 0.066938 0.000000
0.494465 0.083655 0.000000
0.465641 0.085766 0.000000
0.385183 0.089585 0.000000
0.432760 0.111629 0.000000
0.387474 0.124593 0.000000
0.361144 0.139493 0.000000
0.360258 0.152461 0.000000
0.313373 0.188182 0.000000
0.225000 -0.075000 0.000000
0.225000 -0.050000 0.000000
0.225000 -0.025000 0.000000
0.225000 0.000000 0.000000
0.864998 0.023636 0.000000
0.899707 0.054202 0.000000
0.835843 0.023307 0.000000
0.785099 0.071927 0.000000
0.802063 0.024538 0.000000
0.797249 0.082451 0.000000
0.818469 0.041698 0.000000
0.748508 0.046919 0.000000
0.706815 0.042304 0.000000
0.728580 0.053072 0.000000
0.682216 0.052835 0.000000
0.645133 0.068072 0.000000
0.637846 0.079489 0.000000
0.602749 0.081924 0.000000
0.541954 0.097902 0.000000
0.494840 0.109722 0.000000
0.478624 0.105584 0.000000
0.445069 0.130892 0.000000
0.387844 0.141488 0.000000
0.320827 0.162968 0.000000
0.250000 -0.075000 0.000000
0.250000 -0.050000 0.000000
0.250000 -0.025000 0.000000
0.250000 0.000000 0.000000
0.957295 0.033462 0.000000
0.978687 0.025953 0.000000
0.907047 0.023887 0.000000
0.941720 0.025102 0.000000
0.922848 0.033152 0.000000
0.883979 0.038886 0.000000
0.851329 0.063522 0.000000
0.835918 0.064035 0.000000
0.793951 0.095751 0.000000
0.772756 0.045934 0.000000
0.762076 0.089351 0.000000
0.746562 0.072716 0.000000
0.709343 0.072813 0.000000
0.697497 0.088692 0.000000
0.672731 0.063874 0.000000
0.617330 0.077979 0.000000
0.569250 0.096173 0.000000
0.513043 0.090947 0.000000
0.452422 0.119494 0.000000
0.406966 0.117878 0.000000
0.275000 -0.075000 0.000000
0.275000 -0.050000 0.000000
0.275000 -0.025000 0.000000
0.275000 0.000000 0.000000
0.300000 -0.075000 0.000000
0.300000 -0.050000 0.000000
0.300000 -0.025000 0.000000
0.300000 0.000000 0.000000
0.325000 -0.075000 0.000000
0.325000 -0.050000 0.000000
0.325000 -0.025000 0.000000
0.325000 0.000000 0.000000
0.350000 -0.075000 0.000000
0.350000 -0.050000 0.000000
0.350000 -0.025000 0.000000
0.350000 0.000000 0.000000
0.375000 -0.075000 0.000000
0.375000 -0.050000 0.000000
0.375000 -0.025000 0.000000
0.375000 0.000000 0.000000
0.400000 -0.075000 0.000000
0.400000 -0.050000 0.000000
0.400000 -0.025000 0.000000
0.400000 0.000000 0.000000
0.425000 -0.075000 0.000000
0.425000 -0.050000 0.000000
0.425000 -0.025000 0.000000
0.425000 0.000000 0.000000
0.450000 -0.075000 0.000000
0.450000 -0.050000 0.000000
0.450000 -0.025000 0.000000
0.450000 0.000000 0.000000
0.475000 -0.075000 0.000000
0.475000 -0.050000 0.000000
0.475000 -0.025000 0.000000
0.475000 0.000000 0.000000
0.500000 -0.075000 0.000000
0.500000 -0.050000 0.000000
0.500000 -0.025000 0.000000
0.500000 0.000000 0.000000
0.525000 -0.075000 0.000000
0.525000 -0.050000 0.000000
0.525000 -0.025000 0.000000
0.525000 0.000000 0.000000
0.550000 -0.075000 0.000000
0.550000 -0.050000 0.000000
0.550000 -0.025000 0.000000
0.550000 0.000000 0.000000
0.575000 -0.075000 0.000000
0.575000 -0.050000 0.000000
0.575000 -0.025000 0.000000
0.575000 0.000000 0.000000
0.600000 -0.075000 0.000000
0.600000 -0.050000 0.000000
0.600000 -0.025000 0.000000
0.600000 0.000000 0.000000
0.625000 -0.075000 0.000000
0.625000 -0.050000 0.000000
0.625000 -0.025000 0.000000
0.625000 0.000000 0.000000
0.650000 -0.075000 0.000000
0.650000 -0.050000 0.000000
0.650000 -0.025000 0.000000
0.650000 0.000000 0.000000
0.675000 -0.075000 0.000000
0.675000 -0.050000 0.000000
0.675000 -0.025000 0.000000
0.675000 0.000000 0.000000
0.700000 -0.075000 0.000000
0.700000 -0.050000 0.000000
0.700000 -0.025000 0.000000
0.700000 0.000000 0.000000
0.725000 -0.075000 0.000000
0.725000 -0.050000 0.000000
0.725000 -0.025000 0.000000
0.725000 0.000000 0.000000
0.750000 -0.075000 0.000000
0.750000 -0.050000 0.000000
0.750000 -0.025000 0.000000
0.750000 0.000000 0.000000
0.775000 -0.075000 0.000000
0.775000 -0.050000 0.000000
0.775000 -0.025000 0.000000
0.775000 0.000000 0.000000
0.800000 -0.075000 0.000000
0.800000 -0.050000 0.000000
0.800000 -0.025000 0.000000
0.800000 0.000000 0.000000
0.825000 -0.075000 0.000000
0.825000 -0.050000 0.000000
0.825000 -0.025000 0.000000
0.825000 0.000000 0.000000
0.850000 -0.075000 0.000000
0.850000 -0.050000 0.000000
0.850000 -0.025000 0.000000
0.850000 0.000000 0.000000
0.875000 -0.075000 0.000000
0.875000 -0.050000 0.000000
0.875000 -0.025000 0.000000
0.875000 0.000000 0.000000
0.900000 -0.075000 0.000000
0.900000 -0.050000 0.000000
0.900000 -0.025000 0.000000
0.900000 0.000000 0.000000
0.925000 -0.075000 0.000000
0.925000 -0.050000 0.000000
0.925000 -0.025000 0.000000
0.925000 0.000000 0.000000
0.950000 -0.075000 0.000000
0.950000 -0.050000 0.000000
0.950000 -0.025000 0.000000
0.950000 0.000000 0.000000
0.975000 -0.075000 0.000000
0.975000 -0.050000 0.000000
0.975000 -0.025000 0.000000
0.975000 0.000000 0.000000
1.000000 -0.075000 0.000000
1.000000 -0.050000 0.000000
1.000000 -0.025000 0.000000
1.000000 0.000000 0.000000
1.025000 -0.075000 0.000000
1.025000 -0.050000 0.000000
1.025000 -0.025000 0.000000
1.025000 0.000000 0.000000
1.025000 0.025000 0.000000
1.025000 0.050000 0.000000
1.025000 0.075000 0.000000
1.025000 0.100000 0.000000
1.025000 0.125000 0.000000
1.025000 0.150000 0.000000
1.025000 0.175000 0.000000
1.025000 0.200000 0.000000
1.025000 0.225000 0.000000
1.025000 0.250000 0.000000
1.025000 0.275000 0.000000
1.025000 0.300000 0.000000
1.025000 0.325000 0.000000
1.025000 0.350000 0.000000
1.025000 0.375000 0.000000
1.025000 0.400000 0.000000
1.025000 0.425000 0.000000
1.025000 0.450000 0.000000
1.025000 0.475000 0.000000
1.025000 0.500000 0.000000
1.025000 0.525000 0.000000
1.025000 0.550000 0.000000
1.025000 0.575000 0.000000
1.025000 0.600000 0.000000
1.050000 -0.075000 0.000000
1.050000 -0.050000 0.000000
1.050000 -0.025000 0.000000
1.050000 0.000000 0.000000
1.050000 0.025000 0.000000
1.050000 0.050000 0.000000
1.050000 0.075000 0.000000
1.050000 0.100000 0.000000
1.050000 0.125000 0.000000
1.050000 0.150000 0.000000
1.050000 0.175000 0.000000
1.050000 0.200000 0.000000
1.050000 0.225000 0.000000
1.050000 0.250000 0.000000
1.050000 0.275000 0.000000
1.050000 0.300000 0.000000
1.050000 0.325000 0.000000
1.050000 0.350000 0.000000
1.050000 0.375000 0.000000
1.050000 0.400000 0.000000
1.050000 0.425000 0.000000
1.050000 0.450000 0.000000
1.050000 0.475000 0.000000
1.050000 0.500000 0.000000
1.050000 0.525000 0.000000
1.050000 0.550000 0.000000
1.050000 0.575000 0.000000
1.050000 0.600000 0.000000
1.075000 -0.075000 0.000000
1.075000 -0.050000 0.000000
1.075000 -0.025000 0.000000
1.075000 0.000000 0.000000
1.075000 0.025000 0.000000
1.075000 0.050000 0.000000
1.075000 0.075000 0.000000
1.075000 0.100000 0.000000
1.075000 0.125000 0.000000
1.075000 0.150000 0.000000
1.075000 0.175000 0.000000
1.075000 0.200000 0.000000
1.075000 0.225000 0.000000
1.075000 0.250000 0.000000
1.075000 0.275000 0.000000
1.075000 0.300000 0.000000
1.075000 0.325000 0.000000
1.075000 0.350000 0.000000
1.075000 0.375000 0.000000
1.075000 0.400000 0.000000
1.075000 0.425000 0.000000
1.075000 0.450000 0.000000
1.075000 0.475000 0.000000
1.075000 0.500000 0.000000
1.075000 0.525000 0.000000
1.075000 0.550000 0.000000
1.075000 0.575000 0.000000
1.075000 0.600000 0.000000
1.100000 -0.075000 0.000000
1.100000 -0.050000 0.000000
1.100000 -0.025000 0.000000
1.100000 0.000000 0.000000
1.100000 0.025000 0.000000
1.100000 0.050000 0.000000
1.100000 0.075000 0.000000
1.100000 0.100000 0.000000
1.100000 0.125000 0.000000
1.100000 0.150000 0.000000
1.100000 0.175000 0.000000
1.100000 0.200000 0.000000
1.100000 0.225000 0.000000
1.100000 0.250000 0.000000
1.100000 0.275000 0.000000
1.100000 0.300000 0.000000
1.100000 0.325000 0.000000
1.100000 0.350000 0.000000
1.100000 0.375000 0.000000
1.100000 0.400000 0.000000
1.100000 0.425000 0.000000
1.100000 0.450000 0.000000
1.100000 0.475000 0.000000
1.100000 0.500000 0.000000
1.100000 0.525000 0.000000
1.100000 0.550000 0.000000
1.100000 0.575000 0.000000
1.100000 0.600000 0.000000
</DataArray>
</Points>
<PointData>
<DataArray NumberOfComponents='1' type='Int32' Name='ParticleType' format='ascii'>
3
3
3
3
3
3
3
3
3
3
3
3
3
3
3
3
3
3
3
3
3
3
3
3
3
3
2
2
3
3
3
3
3
3
3
3
3
3
3
3
3
3
3
3
3
3
3
3
3
3
3
3
3
3
2
2
3
3
2
2
2
2
2
2
2
2
2
2
2
2
2
2
2
2
2
2
2
2
2
2
2
2
2
2
3
3
2
2
2
2
2
2
2
2
2
2
2
2
2
2
2
2
2
2
2
2
2
2
2
2
2
2
3
3
2
2
0
0
0
0
0
0
0
0
0
0
0
0
0
0
0
0
0
0
0
0
3
3
2
2
0
0
0
0
0
0
0
0
0
0
0
0
0
0
0
0
0
0
0
0
3
3
2
2
0
0
0
0
0
0
0
0
0
0
0
0
0
0
0
0
0
0
0
0
3
3
2
2
0
0
0
0
0
0
0
0
0
0
0
0
0
0
0
0
0
0
0
0
3
3
2
2
0
0
0
0
0
0
0
0
0
0
0
0
0
0
0
0
0
0
0
0
3
3
2
2
0
0
0
0
0
0
0
0
0
0
0
0
0
0
0
0
0
0
0
0
3
3
2
2
0
0
0
0
0
0
0
0
0
0
0
0
0
0
0
0
0
0
0
0
3
3
2
2
0
0
0
0
0
0
0
0
0
0
0
0
0
0
0
0
0
0
0
0
3
3
2
2
0
0
0
0
0
0
0
0
0
0
0
0
0
0
0
0
0
0
0
0
3
3
2
2
0
0
0
0
0
0
0
0
0
0
0
0
0
0
0
0
0
0
0
0
3
3
2
2
3
3
2
2
3
3
2
2
3
3
2
2
3
3
2
2
3
3
2
2
3
3
2
2
3
3
2
2
3
3
2
2
3
3
2
2
3
3
2
2
3
3
2
2
3
3
2
2
3
3
2
2
3
3
2
2
3
3
2
2
3
3
2
2
3
3
2
2
3
3
2
2
3
3
2
2
3
3
2
2
3
3
2
2
3
3
2
2
3
3
2
2
3
3
2
2
3
3
2
2
3
3
2
2
3
3
2
2
3
3
2
2
3
3
2
2
3
3
2
2
2
2
2
2
2
2
2
2
2
2
2
2
2
2
2
2
2
2
2
2
2
2
2
2
3
3
2
2
2
2
2
2
2
2
2
2
2
2
2
2
2
2
2
2
2
2
2
2
2
2
2
2
3
3
3
3
3
3
3
3
3
3
3
3
3
3
3
3
3
3
3
3
3
3
3
3
3
3
2
2
3
3
3
3
3
3
3
3
3
3
3
3
3
3
3
3
3
3
3
3
3
3
3
3
3
3
2
2
</DataArray>
<DataArray NumberOfComponents='1' type='Float32' Name='Velocity' format='ascii'>
0.000000
0.000000
0.000000
0.000000
0.000000
0.000000
0.000000
0.000000
0.000000
0.000000
0.000000
0.000000
0.000000
0.000000
0.000000
0.000000
0.000000
0.000000
0.000000
0.000000
0.000000
0.000000
0.000000
0.000000
0.000000
0.000000
0.000000
0.000000
0.000000
0.000000
0.000000
0.000000
0.000000
0.000000
0.000000
0.000000
0.000000
0.000000
0.000000
0.000000
0.000000
0.000000
0.000000
0.000000
0.000000
0.000000
0.000000
0.000000
0.000000
0.000000
0.000000
0.000000
0.000000
0.000000
0.000000
0.000000
0.000000
0.000000
0.000000
0.000000
0.000000
0.000000
0.000000
0.000000
0.000000
0.000000
0.000000
0.000000
0.000000
0.000000
0.000000
0.000000
0.000000
0.000000
0.000000
0.000000
0.000000
0.000000
0.000000
0.000000
0.000000
0.000000
0.000000
0.000000
0.000000
0.000000
0.000000
0.000000
0.000000
0.000000
0.000000
0.000000
0.000000
0.000000
0.000000
0.000000
0.000000
0.000000
0.000000
0.000000
0.000000
0.000000
0.000000
0.000000
0.000000
0.000000
0.000000
0.000000
0.000000
0.000000
0.000000
0.000000
0.000000
0.000000
0.000000
0.000000
0.351633
0.333331
0.136923
0.260210
0.274341
0.230652
0.171574
0.368546
0.145296
0.443101
0.418370
0.300477
0.687129
0.413765
0.676341
0.410697
0.626347
0.816330
0.608204
0.839842
0.000000
0.000000
0.000000
0.000000
0.072776
0.395259
0.578215
0.754368
0.836167
0.409815
0.459751
0.621808
0.500084
0.404729
0.351503
0.718262
0.368313
0.695716
0.705438
0.371183
0.790708
0.868239
0.666584
0.702993
0.000000
0.000000
0.000000
0.000000
0.679677
0.605846
0.247616
0.312460
0.625619
1.385707
0.843421
0.392941
1.058621
0.467195
0.880320
0.633658
0.312920
0.498852
0.285385
0.426957
0.470542
0.482003
1.009839
0.576784
0.000000
0.000000
0.000000
0.000000
0.149576
0.677541
0.693895
1.176710
0.354185
1.207039
1.632483
0.856189
1.002982
0.867572
0.900893
0.863991
0.741078
1.060398
0.612112
0.512233
0.990463
1.005978
0.875356
1.253734
0.000000
0.000000
0.000000
0.000000
1.432136
0.908469
1.810162
1.560279
1.610808
0.733554
0.991248
0.985425
1.282023
0.799509
1.307554
1.414627
0.966706
0.695625
0.344921
0.885788
1.351210
0.659910
1.079382
0.663859
0.000000
0.000000
0.000000
0.000000
1.657307
1.858055
1.896091
1.632472
2.181718
2.058446
1.035723
1.495720
1.376766
1.872003
1.639981
1.165612
1.302818
1.552041
1.257323
0.997260
0.703575
0.780541
1.039258
1.411470
0.000000
0.000000
0.000000
0.000000
2.669126
2.323424
2.741396
2.411093
2.547345
2.050148
2.020056
2.332865
2.005533
2.403451
1.477173
1.677785
1.382239
1.276447
1.288856
2.050990
1.400936
1.278800
1.215884
1.413951
0.000000
0.000000
0.000000
0.000000
2.929623
2.867933
3.119835
2.655687
3.404173
2.713593
2.743363
2.534684
2.356254
2.373836
2.276436
1.950465
1.852379
1.948355
1.361386
1.764474
1.684300
1.457970
1.590014
1.548876
0.000000
0.000000
0.000000
0.000000
2.880471
2.909847
2.869022
2.593571
2.657668
2.864570
3.355263
2.667581
3.142806
3.013775
2.487779
2.588799
2.747629
2.217218
2.265473
1.938784
2.080392
2.103493
1.581917
1.396249
0.000000
0.000000
0.000000
0.000000
2.923224
3.510301
2.992017
3.186429
3.195335
3.115747
2.794344
2.555315
2.661663
2.961123
2.871689
2.751751
2.966038
2.880187
2.857148
2.316175
2.256924
2.280681
1.947330
2.180811
0.000000
0.000000
0.000000
0.000000
0.000000
0.000000
0.000000
0.000000
0.000000
0.000000
0.000000
0.000000
0.000000
0.000000
0.000000
0.000000
0.000000
0.000000
0.000000
0.000000
0.000000
0.000000
0.000000
0.000000
0.000000
0.000000
0.000000
0.000000
0.000000
0.000000
0.000000
0.000000
0.000000
0.000000
0.000000
0.000000
0.000000
0.000000
0.000000
0.000000
0.000000
0.000000
0.000000
0.000000
0.000000
0.000000
0.000000
0.000000
0.000000
0.000000
0.000000
0.000000
0.000000
0.000000
0.000000
0.000000
0.000000
0.000000
0.000000
0.000000
0.000000
0.000000
0.000000
0.000000
0.000000
0.000000
0.000000
0.000000
0.000000
0.000000
0.000000
0.000000
0.000000
0.000000
0.000000
0.000000
0.000000
0.000000
0.000000
0.000000
0.000000
0.000000
0.000000
0.000000
0.000000
0.000000
0.000000
0.000000
0.000000
0.000000
0.000000
0.000000
0.000000
0.000000
0.000000
0.000000
0.000000
0.000000
0.000000
0.000000
0.000000
0.000000
0.000000
0.000000
0.000000
0.000000
0.000000
0.000000
0.000000
0.000000
0.000000
0.000000
0.000000
0.000000
0.000000
0.000000
0.000000
0.000000
0.000000
0.000000
0.000000
0.000000
0.000000
0.000000
0.000000
0.000000
0.000000
0.000000
0.000000
0.000000
0.000000
0.000000
0.000000
0.000000
0.000000
0.000000
0.000000
0.000000
0.000000
0.000000
0.000000
0.000000
0.000000
0.000000
0.000000
0.000000
0.000000
0.000000
0.000000
0.000000
0.000000
0.000000
0.000000
0.000000
0.000000
0.000000
0.000000
0.000000
0.000000
0.000000
0.000000
0.000000
0.000000
0.000000
0.000000
0.000000
0.000000
0.000000
0.000000
0.000000
0.000000
0.000000
0.000000
0.000000
0.000000
0.000000
0.000000
0.000000
0.000000
0.000000
0.000000
0.000000
0.000000
0.000000
0.000000
0.000000
0.000000
0.000000
0.000000
0.000000
0.000000
0.000000
0.000000
0.000000
0.000000
0.000000
0.000000
0.000000
0.000000
0.000000
0.000000
0.000000
0.000000
0.000000
0.000000
0.000000
0.000000
0.000000
0.000000
0.000000
0.000000
0.000000
0.000000
0.000000
0.000000
0.000000
0.000000
0.000000
0.000000
0.000000
0.000000
0.000000
0.000000
0.000000
0.000000
0.000000
0.000000
0.000000
0.000000
0.000000
0.000000
0.000000
</DataArray>
<DataArray NumberOfComponents='1' type='Float32' Name='pressure' format='ascii'>
0.000000
0.000000
0.000000
0.000000
0.000000
0.000000
0.000000
0.000000
0.000000
0.000000
0.000000
0.000000
0.000000
0.000000
0.000000
0.000000
0.000000
0.000000
0.000000
0.000000
0.000000
0.000000
0.000000
0.000000
0.000000
0.000000
0.000000
0.000000
0.000000
0.000000
0.000000
0.000000
0.000000
0.000000
0.000000
0.000000
0.000000
0.000000
0.000000
0.000000
0.000000
0.000000
0.000000
0.000000
0.000000
0.000000
0.000000
0.000000
0.000000
0.000000
0.000000
0.000000
0.000000
0.000000
0.000000
0.000000
0.000000
0.000000
0.000000
0.000000
259.346619
1796.801147
0.000000
692.711731
1972.441528
1183.488525
86.469955
559.015076
1907.523560
1464.789795
861.990295
0.000000
0.000000
0.000000
0.000000
0.000000
0.000000
0.000000
0.000000
0.000000
0.000000
0.000000
0.000000
0.000000
0.000000
0.000000
0.000000
0.000000
0.000000
3093.166748
0.000000
0.000000
2318.490967
1562.398438
0.000000
0.000000
2035.016357
1288.132446
0.000000
0.000000
0.000000
0.000000
0.000000
0.000000
0.000000
0.000000
0.000000
0.000000
0.000000
0.000000
0.000000
0.000000
0.000000
0.000000
235.068253
0.000000
2244.828857
2488.491943
0.000000
382.130554
914.615051
755.535217
934.806702
1301.962402
0.000000
1834.515747
1241.943970
839.626770
1075.249146
2299.271484
1359.441284
11.702576
232.794189
219.400375
246.675217
0.000000
0.000000
0.000000
983.880188
0.000000
1857.004395
33.468048
1832.757690
1802.918335
786.402588
194.061783
2000.042847
1317.764282
762.354675
626.582764
1016.789429
766.747437
923.570496
922.067688
430.172577
951.675598
1515.263672
0.000000
0.000000
0.000000
0.000000
0.000000
1451.009155
1207.449829
1254.750610
1330.675171
2822.597656
1911.380859
1913.855957
826.270935
669.106506
1030.852295
0.000000
0.000000
787.354187
1097.819702
1018.169739
796.911926
378.446655
749.130920
365.338531
0.000000
0.000000
0.000000
0.000000
0.000000
740.032532
1256.903198
1857.003906
134.648544
899.780518
1044.369507
2068.118164
3044.855957
2350.604004
2054.663330
1226.980225
1814.128052
1831.748047
768.342346
1779.433228
1957.982422
2168.026855
42.243763
598.335144
1742.602295
0.000000
0.000000
0.000000
0.000000
2740.059326
3304.661865
2179.256836
3747.759766
939.398865
1170.745605
1410.631592
3244.108154
3098.224121
2843.328125
1807.646240
1593.553955
2268.210693
0.000000
874.091797
246.767487
1627.060181
446.386627
0.000000
325.739532
0.000000
0.000000
0.000000
0.000000
1323.362671
0.000000
597.561768
2120.342285
1736.704346
1843.539429
555.542664
694.735107
3390.715332
1292.987427
3798.939453
4331.125000
1838.828247
3052.234375
2517.019287
519.096008
0.000000
1148.520386
0.000000
0.000000
0.000000
0.000000
0.000000
0.000000
3101.836914
1376.191772
1612.180420
1290.743408
1127.571655
0.000000
3136.423096
2251.168457
715.097412
0.000000
728.854004
197.361511
1567.480957
2157.594971
1836.930054
1378.496216
3158.271973
0.000000
1084.922729
1065.354492
0.000000
0.000000
0.000000
0.000000
4430.101074
4082.484131
0.000000
0.000000
0.000000
0.000000
0.000000
0.000000
0.000000
0.000000
1627.826050
0.000000
1340.881836
721.743835
1648.271606
1637.902954
224.336517
0.000000
1817.050293
569.071533
0.000000
0.000000
0.000000
0.000000
1930.229980
1178.347656
0.000000
0.000000
1307.417725
0.000000
89.878662
0.000000
0.000000
596.958374
0.000000
0.000000
0.000000
0.000000
0.000000
0.000000
0.000000
0.000000
0.000000
0.000000
0.000000
0.000000
0.000000
0.000000
3242.612305
2381.394531
0.000000
0.000000
223.046112
863.380676
0.000000
0.000000
0.000000
0.000000
0.000000
90.728745
0.000000
0.000000
0.000000
0.000000
0.000000
0.000000
0.000000
0.000000
0.000000
0.000000
0.000000
0.000000
4278.117676
2552.259033
0.000000
0.000000
4846.143066
4952.805176
0.000000
0.000000
4284.026367
4051.379150
0.000000
0.000000
4174.783691
2878.267090
0.000000
0.000000
3602.753418
3107.099121
0.000000
0.000000
4627.743652
3832.503662
0.000000
0.000000
4031.182861
942.015808
0.000000
0.000000
3987.198486
2155.287598
0.000000
0.000000
3344.670166
1458.610596
0.000000
0.000000
3336.019043
2984.550537
0.000000
0.000000
2351.563721
2782.315430
0.000000
0.000000
1148.775879
1095.483276
0.000000
0.000000
2305.442383
2745.930664
0.000000
0.000000
45.491962
0.000000
0.000000
0.000000
0.000000
0.000000
0.000000
0.000000
443.781799
0.000000
0.000000
0.000000
667.728333
760.234131
0.000000
0.000000
699.092407
11.045507
0.000000
0.000000
471.179779
0.000000
0.000000
0.000000
764.669983
0.000000
0.000000
0.000000
309.741425
0.000000
0.000000
0.000000
0.000000
0.000000
0.000000
0.000000
0.000000
0.000000
0.000000
0.000000
0.000000
0.000000
0.000000
0.000000
0.000000
0.000000
0.000000
0.000000
0.000000
0.000000
0.000000
0.000000
0.000000
981.265686
0.000000
0.000000
0.000000
704.699036
0.000000
0.000000
0.000000
0.000000
0.000000
0.000000
0.000000
0.000000
0.000000
0.000000
0.000000
0.000000
0.000000
0.000000
0.000000
0.000000
0.000000
0.000000
0.000000
0.000000
0.000000
0.000000
0.000000
0.000000
0.000000
0.000000
0.000000
0.000000
0.000000
0.000000
0.000000
0.000000
0.000000
0.000000
0.000000
0.000000
0.000000
0.000000
0.000000
0.000000
0.000000
0.000000
0.000000
0.000000
0.000000
0.000000
0.000000
0.000000
0.000000
0.000000
0.000000
0.000000
0.000000
0.000000
0.000000
0.000000
0.000000
0.000000
0.000000
0.000000
0.000000
0.000000
0.000000
0.000000
0.000000
0.000000
0.000000
0.000000
0.000000
0.000000
0.000000
0.000000
0.000000
0.000000
0.000000
0.000000
0.000000
0.000000
0.000000
0.000000
0.000000
0.000000
0.000000
0.000000
0.000000
0.000000
0.000000
0.000000
0.000000
0.000000
0.000000
0.000000
0.000000
0.000000
0.000000
0.000000
0.000000
0.000000
0.000000
0.000000
0.000000
0.000000
0.000000
0.000000
0.000000
0.000000
0.000000
0.000000
0.000000
0.000000
0.000000
0.000000
0.000000
0.000000
0.000000
0.000000
0.000000
0.000000
0.000000
0.000000
</DataArray>
</PointData>
<Cells>
<DataArray type='Int32' Name='connectivity' format='ascii'>
0
1
2
3
4
5
6
7
8
9
10
11
12
13
14
15
16
17
18
19
20
21
22
23
24
25
26
27
28
29
30
31
32
33
34
35
36
37
38
39
40
41
42
43
44
45
46
47
48
49
50
51
52
53
54
55
56
57
58
59
60
61
62
63
64
65
66
67
68
69
70
71
72
73
74
75
76
77
78
79
80
81
82
83
84
85
86
87
88
89
90
91
92
93
94
95
96
97
98
99
100
101
102
103
104
105
106
107
108
109
110
111
112
113
114
115
116
117
118
119
120
121
122
123
124
125
126
127
128
129
130
131
132
133
134
135
136
137
138
139
140
141
142
143
144
145
146
147
148
149
150
151
152
153
154
155
156
157
158
159
160
161
162
163
164
165
166
167
168
169
170
171
172
173
174
175
176
177
178
179
180
181
182
183
184
185
186
187
188
189
190
191
192
193
194
195
196
197
198
199
200
201
202
203
204
205
206
207
208
209
210
211
212
213
214
215
216
217
218
219
220
221
222
223
224
225
226
227
228
229
230
231
232
233
234
235
236
237
238
239
240
241
242
243
244
245
246
247
248
249
250
251
252
253
254
255
256
257
258
259
260
261
262
263
264
265
266
267
268
269
270
271
272
273
274
275
276
277
278
279
280
281
282
283
284
285
286
287
288
289
290
291
292
293
294
295
296
297
298
299
300
301
302
303
304
305
306
307
308
309