<?xml version='1.0' encoding='UTF-8'?>
<VTKFile xmlns='VTK' byte_order='LittleEndian' version='0.1' type='UnstructuredGrid'>
<UnstructuredGrid>
<Piece NumberOfCells='584' NumberOfPoints='584'>
<Points>
<DataArray NumberOfComponents='3' type='Float32' Name='Position' format='ascii'>
-0.075000 -0.075000 0.000000
-0.075000 -0.050000 0.000000
-0.075000 -0.025000 0.000000
-0.075000 0.000000 0.000000
-0.075000 0.025000 0.000000
-0.075000 0.050000 0.000000
-0.075000 0.075000 0.000000
-0.075000 0.100000 0.000000
-0.075000 0.125000 0.000000
-0.075000 0.150000 0.000000
-0.075000 0.175000 0.000000
-0.075000 0.200000 0.000000
-0.075000 0.225000 0.000000
-0.075000 0.250000 0.000000
-0.075000 0.275000 0.000000
-0.075000 0.300000 0.000000
-0.075000 0.325000 0.000000
-0.075000 0.350000 0.000000
-0.075000 0.375000 0.000000
-0.075000 0.400000 0.000000
-0.075000 0.425000 0.000000
-0.075000 0.450000 0.000000
-0.075000 0.475000 0.000000
-0.075000 0.500000 0.000000
-0.075000 0.525000 0.000000
-0.075000 0.550000 0.000000
-0.075000 0.575000 0.000000
-0.075000 0.600000 0.000000
-0.050000 -0.075000 0.000000
-0.050000 -0.050000 0.000000
-0.050000 -0.025000 0.000000
-0.050000 0.000000 0.000000
-0.050000 0.025000 0.000000
-0.050000 0.050000 0.000000
-0.050000 0.075000 0.000000
-0.050000 0.100000 0.000000
-0.050000 0.125000 0.000000
-0.050000 0.150000 0.000000
-0.050000 0.175000 0.000000
-0.050000 0.200000 0.000000
-0.050000 0.225000 0.000000
-0.050000 0.250000 0.000000
-0.050000 0.275000 0.000000
-0.050000 0.300000 0.000000
-0.050000 0.325000 0.000000
-0.050000 0.350000 0.000000
-0.050000 0.375000 0.000000
-0.050000 0.400000 0.000000
-0.050000 0.425000 0.000000
-0.050000 0.450000 0.000000
-0.050000 0.475000 0.000000
-0.050000 0.500000 0.000000
-0.050000 0.525000 0.000000
-0.050000 0.550000 0.000000
-0.050000 0.575000 0.000000
-0.050000 0.600000 0.000000
-0.025000 -0.075000 0.000000
-0.025000 -0.050000 0.000000
-0.025000 -0.025000 0.000000
-0.025000 0.000000 0.000000
-0.025000 0.025000 0.000000
-0.025000 0.050000 0.000000
-0.025000 0.075000 0.000000
-0.025000 0.100000 0.000000
-0.025000 0.125000 0.000000
-0.025000 0.150000 0.000000
-0.025000 0.175000 0.000000
-0.025000 0.200000 0.000000
-0.025000 0.225000 0.000000
-0.025000 0.250000 0.000000
-0.025000 0.275000 0.000000
-0.025000 0.300000 0.000000
-0.025000 0.325000 0.000000
-0.025000 0.350000 0.000000
-0.025000 0.375000 0.000000
-0.025000 0.400000 0.000000
-0.025000 0.425000 0.000000
-0.025000 0.450000 0.000000
-0.025000 0.475000 0.000000
-0.025000 0.500000 0.000000
-0.025000 0.525000 0.000000
-0.025000 0.550000 0.000000
-0.025000 0.575000 0.000000
-0.025000 0.600000 0.000000
0.000000 -0.075000 0.000000
0.000000 -0.050000 0.000000
0.000000 -0.025000 0.000000
0.000000 0.000000 0.000000
0.000000 0.025000 0.000000
0.000000 0.050000 0.000000
0.000000 0.075000 0.000000
0.000000 0.100000 0.000000
0.000000 0.125000 0.000000
0.000000 0.150000 0.000000
0.000000 0.175000 0.000000
0.000000 0.200000 0.000000
0.000000 0.225000 0.000000
0.000000 0.250000 0.000000
0.000000 0.275000 0.000000
0.000000 0.300000 0.000000
0.000000 0.325000 0.000000
0.000000 0.350000 0.000000
0.000000 0.375000 0.000000
0.000000 0.400000 0.000000
0.000000 0.425000 0.000000
0.000000 0.450000 0.000000
0.000000 0.475000 0.000000
0.000000 0.500000 0.000000
0.000000 0.525000 0.000000
0.000000 0.550000 0.000000
0.000000 0.575000 0.000000
0.000000 0.600000 0.000000
0.025000 -0.075000 0.000000
0.025000 -0.050000 0.000000
0.025000 -0.025000 0.000000
0.025000 0.000000 0.000000
0.187220 0.048897 0.000000
0.147345 0.159805 0.000000
0.169740 0.034222 0.000000
0.191379 0.023962 0.000000
0.214551 0.048092 0.000000
0.120887 0.097103 0.000000
0.293300 0.025473 0.000000
0.205632 0.072003 0.000000
0.171514 0.098154 0.000000
0.127306 0.229235 0.000000
0.218704 0.022725 0.000000
0.093023 0.133913 0.000000
0.150338 0.023189 0.000000
0.114370 0.021322 0.000000
0.134622 0.138552 0.000000
0.068873 0.053843 0.000000
0.023348 0.176550 0.000000
0.076202 0.025334 0.000000
0.021220 0.143095 0.000000
0.163223 0.061185 0.000000
0.050000 -0.075000 0.000000
0.050000 -0.050000 0.000000
0.050000 -0.025000 0.000000
0.050000 0.000000 0.000000
0.102013 0.201733 0.000000
0.060118 0.136075 0.000000
0.072852 0.190700 0.000000
0.027221 0.023777 0.000000
0.026442 0.109777 0.000000
0.420879 0.062569 0.000000
0.189666 0.133819 0.000000
0.566687 0.023033 0.000000
0.092933 0.167357 0.000000
0.191889 0.219272 0.000000
0.103596 0.086763 0.000000
0.212973 0.125760 0.000000
0.024771 0.225764 0.000000
0.172323 0.252384 0.000000
0.114383 0.053340 0.000000
0.032511 0.043011 0.000000
0.192535 0.110327 0.000000
0.231455 0.105027 0.000000
0.104396 0.242730 0.000000
0.090039 0.068849 0.000000
0.075000 -0.075000 0.000000
0.075000 -0.050000 0.000000
0.075000 -0.025000 0.000000
0.075000 0.000000 0.000000
0.108016 0.118980 0.000000
0.152529 0.122557 0.000000
0.381873 0.058212 0.000000
0.322817 0.023688 0.000000
0.384026 0.090721 0.000000
0.615841 0.065742 0.000000
0.596646 0.084313 0.000000
0.051780 0.113360 0.000000
0.288502 0.120884 0.000000
0.568530 0.065150 0.000000
0.410031 0.024580 0.000000
0.082036 0.111980 0.000000
0.211735 0.094503 0.000000
0.211900 0.151057 0.000000
0.253589 0.081465 0.000000
0.053578 0.090687 0.000000
0.143470 0.104541 0.000000
0.052665 0.063218 0.000000
0.150877 0.079418 0.000000
0.134228 0.040130 0.000000
0.100000 -0.075000 0.000000
0.100000 -0.050000 0.000000
0.100000 -0.025000 0.000000
0.100000 0.000000 0.000000
0.470014 0.031211 0.000000
0.277542 0.166601 0.000000
0.484346 0.064867 0.000000
0.777670 0.030437 0.000000
0.233920 0.071594 0.000000
0.704962 0.028827 0.000000
0.554795 0.086626 0.000000
0.237517 0.050664 0.000000
0.653164 0.025087 0.000000
0.657208 0.047457 0.000000
0.439528 0.020867 0.000000
0.291080 0.152939 0.000000
0.502334 0.061560 0.000000
0.613812 0.037292 0.000000
0.059950 0.216614 0.000000
0.244293 0.027310 0.000000
0.510178 0.033440 0.000000
0.269637 0.064152 0.000000
0.303257 0.098706 0.000000
0.142656 0.201617 0.000000
0.125000 -0.075000 0.000000
0.125000 -0.050000 0.000000
0.125000 -0.025000 0.000000
0.125000 0.000000 0.000000
0.681753 0.051061 0.000000
0.637355 0.060468 0.000000
0.986298 0.056848 0.000000
0.828199 0.023362 0.000000
0.522030 0.070096 0.000000
0.593860 0.025768 0.000000
0.123235 0.212501 0.000000
0.432888 0.044022 0.000000
0.757663 0.072329 0.000000
0.721452 0.060349 0.000000
0.834410 0.060152 0.000000
0.458761 0.047458 0.000000
0.489734 0.022654 0.000000
0.374101 0.140936 0.000000
0.382189 0.022113 0.000000
0.369599 0.122900 0.000000
0.220441 0.170035 0.000000
0.131351 0.064951 0.000000
0.395156 0.132828 0.000000
0.078100 0.155177 0.000000
0.150000 -0.075000 0.000000
0.150000 -0.050000 0.000000
0.150000 -0.025000 0.000000
0.150000 0.000000 0.000000
0.172746 0.175259 0.000000
0.962427 0.021258 0.000000
0.665868 0.079478 0.000000
0.278867 0.044999 0.000000
0.883086 0.024728 0.000000
0.181654 0.079077 0.000000
0.903191 0.048855 0.000000
0.421496 0.093597 0.000000
0.942527 0.055593 0.000000
0.477221 0.108816 0.000000
0.926419 0.047079 0.000000
0.681266 0.022026 0.000000
0.831907 0.076741 0.000000
0.804827 0.073799 0.000000
0.751955 0.021385 0.000000
0.594043 0.063322 0.000000
0.629769 0.025171 0.000000
0.620050 0.105863 0.000000
0.651347 0.076743 0.000000
0.241059 0.150081 0.000000
0.175000 -0.075000 0.000000
0.175000 -0.050000 0.000000
0.175000 -0.025000 0.000000
0.175000 0.000000 0.000000
0.117242 0.144660 0.000000
0.527322 0.098598 0.000000
0.881288 0.044645 0.000000
0.770816 0.072097 0.000000
0.999200 0.023559 0.000000
0.167587 0.195936 0.000000
0.853262 0.026051 0.000000
0.339129 0.045874 0.000000
0.367662 0.043090 0.000000
0.912445 0.021274 0.000000
0.456137 0.070211 0.000000
0.738749 0.064327 0.000000
0.333744 0.098878 0.000000
0.939844 0.030444 0.000000
0.974712 0.041830 0.000000
0.400699 0.046074 0.000000
1.001915 0.048480 0.000000
0.438713 0.080529 0.000000
0.107770 0.178229 0.000000
0.360762 0.104248 0.000000
0.200000 -0.075000 0.000000
0.200000 -0.050000 0.000000
0.200000 -0.025000 0.000000
0.200000 0.000000 0.000000
0.318751 0.111786 0.000000
0.096085 0.035976 0.000000
0.260919 0.104594 0.000000
0.798558 0.023017 0.000000
0.341574 0.067459 0.000000
0.260290 0.160779 0.000000
0.575516 0.041640 0.000000
0.960641 0.074957 0.000000
0.332577 0.136172 0.000000
0.041418 0.141655 0.000000
0.789830 0.051734 0.000000
0.667177 0.112016 0.000000
0.055289 0.026608 0.000000
0.430438 0.116474 0.000000
0.529174 0.044579 0.000000
0.179433 0.223070 0.000000
0.704933 0.052435 0.000000
0.330957 0.150204 0.000000
0.845834 0.043922 0.000000
0.694988 0.084133 0.000000
0.225000 -0.075000 0.000000
0.225000 -0.050000 0.000000
0.225000 -0.025000 0.000000
0.225000 0.000000 0.000000
0.296866 0.068132 0.000000
0.812319 0.047296 0.000000
0.512652 0.101801 0.000000
0.209281 0.262476 0.000000
0.024159 0.200858 0.000000
0.078713 0.208332 0.000000
0.402114 0.118159 0.000000
0.885548 0.066384 0.000000
0.545103 0.059149 0.000000
0.050351 0.166567 0.000000
0.566135 0.094553 0.000000
0.161722 0.333595 0.000000
0.350152 0.025844 0.000000
0.397546 0.080174 0.000000
0.075670 0.087401 0.000000
0.196652 0.201970 0.000000
0.492753 0.096896 0.000000
0.022024 0.065171 0.000000
0.241741 0.128599 0.000000
0.309962 0.043691 0.000000
0.250000 -0.075000 0.000000
0.250000 -0.050000 0.000000
0.250000 -0.025000 0.000000
0.250000 0.000000 0.000000
0.726928 0.027014 0.000000
0.303913 0.175446 0.000000
0.215094 0.187388 0.000000
0.279872 0.092549 0.000000
0.266158 0.024344 0.000000
0.311373 0.148805 0.000000
0.134799 0.186794 0.000000
0.252377 0.186347 0.000000
0.240560 0.203020 0.000000
0.460374 0.103951 0.000000
0.184097 0.159291 0.000000
0.042996 0.211644 0.000000
0.166622 0.143332 0.000000
0.535288 0.020630 0.000000
0.355760 0.084040 0.000000
0.316776 0.072710 0.000000
0.264980 0.129229 0.000000
0.754267 0.045750 0.000000
0.026837 0.089088 0.000000
0.486685 0.130423 0.000000
0.275000 -0.075000 0.000000
0.275000 -0.050000 0.000000
0.275000 -0.025000 0.000000
0.275000 0.000000 0.000000
0.300000 -0.075000 0.000000
0.300000 -0.050000 0.000000
0.300000 -0.025000 0.000000
0.300000 0.000000 0.000000
0.325000 -0.075000 0.000000
0.325000 -0.050000 0.000000
0.325000 -0.025000 0.000000
0.325000 0.000000 0.000000
0.350000 -0.075000 0.000000
0.350000 -0.050000 0.000000
0.350000 -0.025000 0.000000
0.350000 0.000000 0.000000
0.375000 -0.075000 0.000000
0.375000 -0.050000 0.000000
0.375000 -0.025000 0.000000
0.375000 0.000000 0.000000
0.400000 -0.075000 0.000000
0.400000 -0.050000 0.000000
0.400000 -0.025000 0.000000
0.400000 0.000000 0.000000
0.425000 -0.075000 0.000000
0.425000 -0.050000 0.000000
0.425000 -0.025000 0.000000
0.425000 0.000000 0.000000
0.450000 -0.075000 0.000000
0.450000 -0.050000 0.000000
0.450000 -0.025000 0.000000
0.450000 0.000000 0.000000
0.475000 -0.075000 0.000000
0.475000 -0.050000 0.000000
0.475000 -0.025000 0.000000
0.475000 0.000000 0.000000
0.500000 -0.075000 0.000000
0.500000 -0.050000 0.000000
0.500000 -0.025000 0.000000
0.500000 0.000000 0.000000
0.525000 -0.075000 0.000000
0.525000 -0.050000 0.000000
0.525000 -0.025000 0.000000
0.525000 0.000000 0.000000
0.550000 -0.075000 0.000000
0.550000 -0.050000 0.000000
0.550000 -0.025000 0.000000
0.550000 0.000000 0.000000
0.575000 -0.075000 0.000000
0.575000 -0.050000 0.000000
0.575000 -0.025000 0.000000
0.575000 0.000000 0.000000
0.600000 -0.075000 0.000000
0.600000 -0.050000 0.000000
0.600000 -0.025000 0.000000
0.600000 0.000000 0.000000
0.625000 -0.075000 0.000000
0.625000 -0.050000 0.000000
0.625000 -0.025000 0.000000
0.625000 0.000000 0.000000
0.650000 -0.075000 0.000000
0.650000 -0.050000 0.000000
0.650000 -0.025000 0.000000
0.650000 0.000000 0.000000
0.675000 -0.075000 0.000000
0.675000 -0.050000 0.000000
0.675000 -0.025000 0.000000
0.675000 0.000000 0.000000
0.700000 -0.075000 0.000000
0.700000 -0.050000 0.000000
0.700000 -0.025000 0.000000
0.700000 0.000000 0.000000
0.725000 -0.075000 0.000000
0.725000 -0.050000 0.000000
0.725000 -0.025000 0.000000
0.725000 0.000000 0.000000
0.750000 -0.075000 0.000000
0.750000 -0.050000 0.000000
0.750000 -0.025000 0.000000
0.750000 0.000000 0.000000
0.775000 -0.075000 0.000000
0.775000 -0.050000 0.000000
0.775000 -0.025000 0.000000
0.775000 0.000000 0.000000
0.800000 -0.075000 0.000000
0.800000 -0.050000 0.000000
0.800000 -0.025000 0.000000
0.800000 0.000000 0.000000
0.825000 -0.075000 0.000000
0.825000 -0.050000 0.000000
0.825000 -0.025000 0.000000
0.825000 0.000000 0.000000
0.850000 -0.075000 0.000000
0.850000 -0.050000 0.000000
0.850000 -0.025000 0.000000
0.850000 0.000000 0.000000
0.875000 -0.075000 0.000000
0.875000 -0.050000 0.000000
0.875000 -0.025000 0.000000
0.875000 0.000000 0.000000
0.900000 -0.075000 0.000000
0.900000 -0.050000 0.000000
0.900000 -0.025000 0.000000
0.900000 0.000000 0.000000
0.925000 -0.075000 0.000000
0.925000 -0.050000 0.000000
0.925000 -0.025000 0.000000
0.925000 0.000000 0.000000
0.950000 -0.075000 0.000000
0.950000 -0.050000 0.000000
0.950000 -0.025000 0.000000
0.950000 0.000000 0.000000
0.975000 -0.075000 0.000000
0.975000 -0.050000 0.000000
0.975000 -0.025000 0.000000
0.975000 0.000000 0.000000
1.000000 -0.075000 0.000000
1.000000 -0.050000 0.000000
1.000000 -0.025000 0.000000
1.000000 0.000000 0.000000
1.025000 -0.075000 0.000000
1.025000 -0.050000 0.000000
1.025000 -0.025000 0.000000
1.025000 0.000000 0.000000
1.025000 0.025000 0.000000
1.025000 0.050000 0.000000
1.025000 0.075000 0.000000
1.025000 0.100000 0.000000
1.025000 0.125000 0.000000
1.025000 0.150000 0.000000
1.025000 0.175000 0.000000
1.025000 0.200000 0.000000
1.025000 0.225000 0.000000
1.025000 0.250000 0.000000
1.025000 0.275000 0.000000
1.025000 0.300000 0.000000
1.025000 0.325000 0.000000
1.025000 0.350000 0.000000
1.025000 0.375000 0.000000
1.025000 0.400000 0.000000
1.025000 0.425000 0.000000
1.025000 0.450000 0.000000
1.025000 0.475000 0.000000
1.025000 0.500000 0.000000
1.025000 0.525000 0.000000
1.025000 0.550000 0.000000
1.025000 0.575000 0.000000
1.025000 0.600000 0.000000
1.050000 -0.075000 0.000000
1.050000 -0.050000 0.000000
1.050000 -0.025000 0.000000
1.050000 0.000000 0.000000
1.050000 0.025000 0.000000
1.050000 0.050000 0.000000
1.050000 0.075000 0.000000
1.050000 0.100000 0.000000
1.050000 0.125000 0.000000
1.050000 0.150000 0.000000
1.050000 0.175000 0.000000
1.050000 0.200000 0.000000
1.050000 0.225000 0.000000
1.050000 0.250000 0.000000
1.050000 0.275000 0.000000
1.050000 0.300000 0.000000
1.050000 0.325000 0.000000
1.050000 0.350000 0.000000
1.050000 0.375000 0.000000
1.050000 0.400000 0.000000
1.050000 0.425000 0.000000
1.050000 0.450000 0.000000
1.050000 0.475000 0.000000
1.050000 0.500000 0.000000
1.050000 0.525000 0.000000
1.050000 0.550000 0.000000
1.050000 0.575000 0.000000
1.050000 0.600000 0.000000
1.075000 -0.075000 0.000000
1.075000 -0.050000 0.000000
1.075000 -0.025000 0.000000
1.075000 0.000000 0.000000
1.075000 0.025000 0.000000
1.075000 0.050000 0.000000
1.075000 0.075000 0.000000
1.075000 0.100000 0.000000
1.075000 0.125000 0.000000
1.075000 0.150000 0.000000
1.075000 0.175000 0.000000
1.075000 0.200000 0.000000
1.075000 0.225000 0.000000
1.075000 0.250000 0.000000
1.075000 0.275000 0.000000
1.075000 0.300000 0.000000
1.075000 0.325000 0.000000
1.075000 0.350000 0.000000
1.075000 0.375000 0.000000
1.075000 0.400000 0.000000
1.075000 0.425000 0.000000
1.075000 0.450000 0.000000
1.075000 0.475000 0.000000
1.075000 0.500000 0.000000
1.075000 0.525000 0.000000
1.075000 0.550000 0.000000
1.075000 0.575000 0.000000
1.075000 0.600000 0.000000
1.100000 -0.075000 0.000000
1.100000 -0.050000 0.000000
1.100000 -0.025000 0.000000
1.100000 0.000000 0.000000
1.100000 0.025000 0.000000
1.100000 0.050000 0.000000
1.100000 0.075000 0.000000
1.100000 0.100000 0.000000
1.100000 0.125000 0.000000
1.100000 0.150000 0.000000
1.100000 0.175000 0.000000
1.100000 0.200000 0.000000
1.100000 0.225000 0.000000
1.100000 0.250000 0.000000
1.100000 0.275000 0.000000
1.100000 0.300000 0.000000
1.100000 0.325000 0.000000
1.100000 0.350000 0.000000
1.100000 0.375000 0.000000
1.100000 0.400000 0.000000
1.100000 0.425000 0.000000
1.100000 0.450000 0.000000
1.100000 0.475000 0.000000
1.100000 0.500000 0.000000
1.100000 0.525000 0.000000
1.100000 0.550000 0.000000
1.100000 0.575000 0.000000
1.100000 0.600000 0.000000
</DataArray>
</Points>
<PointData>
<DataArray NumberOfComponents='1' type='Int32' Name='ParticleType' format='ascii'>
3
3
3
3
3
3
3
3
3
3
3
3
3
3
3
3
3
3
3
3
3
3
3
3
3
3
2
2
3
3
3
3
3
3
3
3
3
3
3
3
3
3
3
3
3
3
3
3
3
3
3
3
3
3
2
2
3
3
2
2
2
2
2
2
2
2
2
2
2
2
2
2
2
2
2
2
2
2
2
2
2
2
2
2
3
3
2
2
2
2
2
2
2
2
2
2
2
2
2
2
2
2
2
2
2
2
2
2
2
2
2
2
3
3
2
2
0
0
0
0
0
0
0
0
0
0
0
0
0
0
0
0
0
0
0
0
3
3
2
2
0
0
0
0
0
0
0
0
0
0
0
0
0
0
0
0
0
0
0
0
3
3
2
2
0
0
0
0
0
0
0
0
0
0
0
0
0
0
0
0
0
0
0
0
3
3
2
2
0
0
0
0
0
0
0
0
0
0
0
0
0
0
0
0
0
0
0
0
3
3
2
2
0
0
0
0
0
0
0
0
0
0
0
0
0
0
0
0
0
0
0
0
3
3
2
2
0
0
0
0
0
0
0
0
0
0
0
0
0
0
0
0
0
0
0
0
3
3
2
2
0
0
0
0
0
0
0
0
0
0
0
0
0
0
0
0
0
0
0
0
3
3
2
2
0
0
0
0
0
0
0
0
0
0
0
0
0
0
0
0
0
0
0
0
3
3
2
2
0
0
0
0
0
0
0
0
0
0
0
0
0
0
0
0
0
0
0
0
3
3
2
2
0
0
0
0
0
0
0
0
0
0
0
0
0
0
0
0
0
0
0
0
3
3
2
2
3
3
2
2
3
3
2
2
3
3
2
2
3
3
2
2
3
3
2
2
3
3
2
2
3
3
2
2
3
3
2
2
3
3
2
2
3
3
2
2
3
3
2
2
3
3
2
2
3
3
2
2
3
3
2
2
3
3
2
2
3
3
2
2
3
3
2
2
3
3
2
2
3
3
2
2
3
3
2
2
3
3
2
2
3
3
2
2
3
3
2
2
3
3
2
2
3
3
2
2
3
3
2
2
3
3
2
2
3
3
2
2
3
3
2
2
3
3
2
2
2
2
2
2
2
2
2
2
2
2
2
2
2
2
2
2
2
2
2
2
2
2
2
2
3
3
2
2
2
2
2
2
2
2
2
2
2
2
2
2
2
2
2
2
2
2
2
2
2
2
2
2
3
3
3
3
3
3
3
3
3
3
3
3
3
3
3
3
3
3
3
3
3
3
3
3
3
3
2
2
3
3
3
3
3
3
3
3
3
3
3
3
3
3
3
3
3
3
3
3
3
3
3
3
3
3
2
2
</DataArray>
<DataArray NumberOfComponents='1' type='Float32' Name='Velocity' format='ascii'>
0.000000
0.000000
0.000000
0.000000
0.000000
0.000000
0.000000
0.000000
0.000000
0.000000
0.000000
0.000000
0.000000
0.000000
0.000000
0.000000
0.000000
0.000000
0.000000
0.000000
0.000000
0.000000
0.000000
0.000000
0.000000
0.000000
0.000000
0.000000
0.000000
0.000000
0.000000
0.000000
0.000000
0.000000
0.000000
0.000000
0.000000
0.000000
0.000000
0.000000
0.000000
0.000000
0.000000
0.000000
0.000000
0.000000
0.000000
0.000000
0.000000
0.000000
0.000000
0.000000
0.000000
0.000000
0.000000
0.000000
0.000000
0.000000
0.000000
0.000000
0.000000
0.000000
0.000000
0.000000
0.000000
0.000000
0.000000
0.000000
0.000000
0.000000
0.000000
0.000000
0.000000
0.000000
0.000000
0.000000
0.000000
0.000000
0.000000
0.000000
0.000000
0.000000
0.000000
0.000000
0.000000
0.000000
0.000000
0.000000
0.000000
0.000000
0.000000
0.000000
0.000000
0.000000
0.000000
0.000000
0.000000
0.000000
0.000000
0.000000
0.000000
0.000000
0.000000
0.000000
0.000000
0.000000
0.000000
0.000000
0.000000
0.000000
0.000000
0.000000
0.000000
0.000000
0.000000
0.000000
0.663648
0.418777
0.456538
0.305919
0.059032
0.361887
0.229444
0.213915
0.314100
0.595583
0.374805
0.699185
0.535496
0.332342
0.387537
0.381278
0.702904
0.233634
0.636977
0.360378
0.000000
0.000000
0.000000
0.000000
0.435090
0.259043
0.395400
0.153816
0.657382
0.089261
0.545608
0.279623
0.454286
0.679185
0.554118
0.291647
0.678424
0.804313
0.516263
0.407606
0.069702
0.351362
0.469785
0.449683
0.000000
0.000000
0.000000
0.000000
0.458845
0.286181
0.200167
0.275514
0.410830
0.598922
0.629101
0.312668
0.233569
0.535729
0.348372
0.237058
0.417210
0.713670
0.202521
0.237335
0.289210
0.135007
0.222064
0.514093
0.000000
0.000000
0.000000
0.000000
0.074393
0.585780
0.420468
0.085353
0.381965
0.209615
0.454833
0.138660
0.328387
0.121780
0.278839
0.198597
0.154479
0.095564
0.362700
0.244304
0.198248
0.399757
0.213808
0.483694
0.000000
0.000000
0.000000
0.000000
0.273966
0.457054
0.148817
0.166726
0.266150
0.179003
0.217678
0.240719
0.333997
0.071122
0.313467
0.170230
0.153789
0.716895
0.074894
0.140214
0.267076
0.301164
0.458766
0.278656
0.000000
0.000000
0.000000
0.000000
0.137527
0.066984
0.415693
0.050733
0.141303
0.328837
0.208697
0.615675
0.361068
0.556550
0.655989
0.189521
0.236922
0.454001
0.049613
0.284993
0.035761
0.261327
0.459786
0.503960
0.000000
0.000000
0.000000
0.000000
0.276241
0.116204
0.198753
0.260705
0.192772
0.454030
0.150195
0.387603
0.273418
0.066578
0.146113
0.116883
0.275653
0.079686
0.085307
0.162862
0.245275
0.193149
0.188705
0.127088
0.000000
0.000000
0.000000
0.000000
0.278802
0.198493
0.057843
0.121111
0.277200
0.587395
0.257577
0.420822
0.533140
0.445942
0.185506
0.478268
0.139665
0.490515
0.313066
0.127153
0.244437
0.733656
0.374660
0.528166
0.000000
0.000000
0.000000
0.000000
0.403512
0.151983
0.323851
0.480240
0.224309
0.691132
0.288140
0.215055
0.240444
0.990344
0.358027
1.324234
0.266062
0.309868
0.401575
0.556449
0.567012
0.270370
0.221189
0.375018
0.000000
0.000000
0.000000
0.000000
0.343453
0.488990
0.434696
0.186821
0.385728
0.437377
0.290516
0.514835
0.208471
0.275278
0.322563
0.840844
0.467216
0.426037
0.339260
0.364089
0.055090
0.254551
0.302748
0.468926
0.000000
0.000000
0.000000
0.000000
0.000000
0.000000
0.000000
0.000000
0.000000
0.000000
0.000000
0.000000
0.000000
0.000000
0.000000
0.000000
0.000000
0.000000
0.000000
0.000000
0.000000
0.000000
0.000000
0.000000
0.000000
0.000000
0.000000
0.000000
0.000000
0.000000
0.000000
0.000000
0.000000
0.000000
0.000000
0.000000
0.000000
0.000000
0.000000
0.000000
0.000000
0.000000
0.000000
0.000000
0.000000
0.000000
0.000000
0.000000
0.000000
0.000000
0.000000
0.000000
0.000000
0.000000
0.000000
0.000000
0.000000
0.000000
0.000000
0.000000
0.000000
0.000000
0.000000
0.000000
0.000000
0.000000
0.000000
0.000000
0.000000
0.000000
0.000000
0.000000
0.000000
0.000000
0.000000
0.000000
0.000000
0.000000
0.000000
0.000000
0.000000
0.000000
0.000000
0.000000
0.000000
0.000000
0.000000
0.000000
0.000000
0.000000
0.000000
0.000000
0.000000
0.000000
0.000000
0.000000
0.000000
0.000000
0.000000
0.000000
0.000000
0.000000
0.000000
0.000000
0.000000
0.000000
0.000000
0.000000
0.000000
0.000000
0.000000
0.000000
0.000000
0.000000
0.000000
0.000000
0.000000
0.000000
0.000000
0.000000
0.000000
0.000000
0.000000
0.000000
0.000000
0.000000
0.000000
0.000000
0.000000
0.000000
0.000000
0.000000
0.000000
0.000000
0.000000
0.000000
0.000000
0.000000
0.000000
0.000000
0.000000
0.000000
0.000000
0.000000
0.000000
0.000000
0.000000
0.000000
0.000000
0.000000
0.000000
0.000000
0.000000
0.000000
0.000000
0.000000
0.000000
0.000000
0.000000
0.000000
0.000000
0.000000
0.000000
0.000000
0.000000
0.000000
0.000000
0.000000
0.000000
0.000000
0.000000
0.000000
0.000000
0.000000
0.000000
0.000000
0.000000
0.000000
0.000000
0.000000
0.000000
0.000000
0.000000
0.000000
0.000000
0.000000
0.000000
0.000000
0.000000
0.000000
0.000000
0.000000
0.000000
0.000000
0.000000
0.000000
0.000000
0.000000
0.000000
0.000000
0.000000
0.000000
0.000000
0.000000
0.000000
0.000000
0.000000
0.000000
0.000000
0.000000
0.000000
0.000000
0.000000
0.000000
0.000000
0.000000
0.000000
0.000000
0.000000
0.000000
0.000000
0.000000
0.000000
0.000000
0.000000
0.000000
0.000000
0.000000
0.000000
0.000000
0.000000
0.000000
</DataArray>
<DataArray NumberOfComponents='1' type='Float32' Name='pressure' format='ascii'>
0.000000
0.000000
0.000000
0.000000
0.000000
0.000000
0.000000
0.000000
0.000000
0.000000
0.000000
0.000000
0.000000
0.000000
0.000000
0.000000
0.000000
0.000000
0.000000
0.000000
0.000000
0.000000
0.000000
0.000000
0.000000
0.000000
0.000000
0.000000
0.000000
0.000000
0.000000
0.000000
0.000000
0.000000
0.000000
0.000000
0.000000
0.000000
0.000000
0.000000
0.000000
0.000000
0.000000
0.000000
0.000000
0.000000
0.000000
0.000000
0.000000
0.000000
0.000000
0.000000
0.000000
0.000000
0.000000
0.000000
0.000000
0.000000
478.216888
302.717407
0.000000
927.390991
1727.507446
330.722565
1314.139038
2912.925293
2716.166748
2189.086182
932.488770
0.000000
0.000000
0.000000
0.000000
0.000000
0.000000
0.000000
0.000000
0.000000
0.000000
0.000000
0.000000
0.000000
0.000000
0.000000
0.000000
0.000000
732.867249
209.624313
0.000000
49.699047
2784.868164
236.364868
0.000000
2055.247070
1921.184937
4828.288574
0.000000
0.000000
0.000000
0.000000
0.000000
0.000000
0.000000
0.000000
0.000000
0.000000
0.000000
0.000000
0.000000
0.000000
0.000000
0.000000
0.000000
0.000000
1453.348755
1835.285400
837.429871
0.000000
2714.781982
1678.353516
2166.224121
1231.524414
1653.583008
1555.402466
741.833740
0.000000
2461.156982
1184.054932
1586.805420
2782.929688
567.200745
1600.320557
0.000000
3165.063232
1479.927490
1748.960815
0.000000
0.000000
769.127136
1234.018921
0.000000
1960.733032
0.000000
1921.664307
828.497375
1720.976685
656.748047
524.895813
2746.065430
0.000000
1335.807251
568.174805
0.000000
0.000000
2377.378906
1970.659912
1287.594360
0.000000
0.000000
810.894592
0.000000
0.000000
1514.749756
1345.990723
602.072388
1785.776367
384.541504
972.717712
648.563416
0.000000
0.000000
669.508240
0.000000
366.971466
857.437317
0.000000
2066.116455
0.000000
1161.498901
2404.653320
1217.362183
692.437256
1545.631958
1243.050659
0.000000
0.000000
2509.242920
788.290588
861.419312
0.000000
0.000000
918.203125
1671.580322
1289.197998
363.696472
1875.397827
541.091187
503.934357
648.293152
2282.681641
1246.539307
642.835205
0.000000
1563.533569
885.706299
1520.348755
223.102921
347.424042
0.000000
0.000000
3161.805420
2456.665527
0.000000
35.407055
0.000000
1425.601807
997.443481
124.215363
1554.438721
949.721069
0.000000
363.112152
0.000000
99.205063
634.911682
0.000000
1120.645264
0.000000
417.912170
1394.742188
0.000000
0.000000
0.000000
0.000000
2844.244629
2630.174561
0.000000
70.135414
0.000000
2199.300537
702.750916
1831.115601
0.000000
0.000000
0.000000
0.000000
0.000000
411.833618
0.000000
0.000000
211.363892
991.269531
1250.010620
0.000000
0.000000
1588.084106
0.000000
0.000000
1549.466553
390.250977
0.000000
0.000000
0.000000
0.000000
590.142517
0.000000
1000.941223
2090.997070
985.336914
1019.765015
0.000000
0.000000
0.000000
1167.060181
0.000000
450.618042
1235.526489
0.000000
515.375793
1095.243164
0.000000
0.000000
2614.099121
1697.901123
545.402771
1490.832031
1301.353638
649.643860
1222.095825
1805.667603
688.572632
0.000000
0.000000
2422.791748
0.000000
0.000000
1533.247192
0.000000
2021.703125
0.000000
805.248413
0.000000
711.511963
0.000000
0.000000
0.000000
2921.171631
3559.100342
498.938293
3194.042236
0.000000
0.000000
1051.982544
0.000000
0.000000
0.000000
529.935486
0.000000
0.000000
0.000000
1632.794312
1125.352539
1934.009277
0.000000
0.000000
1637.124878
890.516113
1617.213135
0.000000
0.000000
1515.926025
1760.724609
0.000000
0.000000
0.000000
1586.539185
2359.936523
197.078888
175.503372
0.000000
0.000000
0.000000
937.592712
0.000000
806.513794
0.000000
1193.650146
905.652649
0.000000
1564.992920
2276.150879
0.000000
0.000000
0.000000
1808.212402
2114.471680
0.000000
0.000000
1490.008179
1264.692383
0.000000
0.000000
2292.602295
2441.771973
0.000000
0.000000
1793.888672
1310.048340
0.000000
0.000000
3096.286133
2282.845703
0.000000
0.000000
2977.524658
2254.098389
0.000000
0.000000
3322.834473
2386.639893
0.000000
0.000000
3181.849121
1781.760010
0.000000
0.000000
2025.055908
226.050751
0.000000
0.000000
2605.401855
1587.013916
0.000000
0.000000
3639.405029
3294.172119
0.000000
0.000000
3569.612793
1673.931641
0.000000
0.000000
2239.511230
2541.497070
0.000000
0.000000
809.227234
0.000000
0.000000
0.000000
854.176086
546.681519
0.000000
0.000000
1056.156860
1653.464844
0.000000
0.000000
1869.693359
1798.916992
0.000000
0.000000
572.243530
0.000000
0.000000
0.000000
304.916077
0.000000
0.000000
0.000000
2634.028809
3593.588379
0.000000
0.000000
1165.829346
470.705322
0.000000
0.000000
2483.717285
2254.415527
0.000000
0.000000
2139.552979
2895.686523
0.000000
0.000000
639.169128
758.507141
0.000000
0.000000
359.858612
0.000000
0.000000
0.000000
1208.350342
0.000000
0.000000
0.000000
1373.373413
63.254025
0.000000
0.000000
1434.357666
0.000000
0.000000
0.000000
1383.102661
0.000000
0.000000
0.000000
1154.459961
90.295273
0.000000
0.000000
682.931702
760.197327
839.837891
0.000000
0.000000
0.000000
0.000000
0.000000
0.000000
0.000000
0.000000
0.000000
0.000000
0.000000
0.000000
0.000000
0.000000
0.000000
0.000000
0.000000
0.000000
0.000000
0.000000
0.000000
0.000000
0.000000
0.000000
0.000000
626.212952
535.281982
130.590256
603.280396
0.000000
0.000000
0.000000
0.000000
0.000000
0.000000
0.000000
0.000000
0.000000
0.000000
0.000000
0.000000
0.000000
0.000000
0.000000
0.000000
0.000000
0.000000
0.000000
0.000000
0.000000
0.000000
0.000000
0.000000
0.000000
0.000000
0.000000
0.000000
0.000000
0.000000
0.000000
0.000000
0.000000
0.000000
0.000000
0.000000
0.000000
0.000000
0.000000
0.000000
0.000000
0.000000
0.000000
0.000000
0.000000
0.000000
0.000000
0.000000
0.000000
0.000000
0.000000
0.000000
0.000000
0.000000
0.000000
0.000000
0.000000
0.000000
0.000000
0.000000
0.000000
0.000000
0.000000
0.000000
0.000000
0.000000
0.000000
0.000000
0.000000
0.000000
0.000000
0.000000
0.000000
0.000000
0.000000
0.000000
0.000000
0.000000
</DataArray>
</PointData>
<Cells>
<DataArray type='Int32' Name='connectivity' format='ascii'>
0
1
2
3
4
5
6
7
8
9
10
11
12
13
14
15
16
17
18
19
20
21
22
23
24
25
26
27
28
29
30
31
32
33
34
35
36
37
38
39
40
41
42
43
44
45
46
47
48
49
50
51
52
53
54
55
56
57
58
59
60
61
62
63
64
65
66
67
68
69
70
71
72
73
74
75
76
77
78
79
80
81
82
83
84
85
86
87
88
89
90
91
92
93
94
95
96
97
98
99
100
101
102
103
104
105
106
107
108
109
110
111
112
113
114
115
116
117
118
119
120
121
122
123
124
125
126
127
128
129
130
131
132
133
134
135
136
137
138
139
140
141
142
143
144
145
146
147
148
149
150
151
152
153
154
155
156
157
158
159
160
161
162
163
164
165
166
167
168
169
170
171
172
173
174
175
176
177
178
179
180
181
182
183
184
185
186
187
188
189
190
191
192
193
194
195
196
197
198
199
200
201
202
203
204
205
206
207
208
209
210
211
212
213
214
215
216
217
218
219
220
221
222
223
224
225
226
227
228
229
230
231
232
233
234
235
236
237
238
239
240
241
242
243
244
245
246
247
248
249
250
251
252
253
254
255
256
257
258
259
260
261
262
263
264
265
266
267
268
269
270
271
272
273
274
275
276
277
278
279
280
281
282
283
284
285
286
287
288
289
290
291
292