<?xml version='1.0' encoding='UTF-8'?>
<VTKFile xmlns='VTK' byte_order='LittleEndian' version='0.1' type='UnstructuredGrid'>
<UnstructuredGrid>
<Piece NumberOfCells='584' NumberOfPoints='584'>
<Points>
<DataArray NumberOfComponents='3' type='Float32' Name='Position' format='ascii'>
-0.075000 -0.075000 0.000000
-0.075000 -0.050000 0.000000
-0.075000 -0.025000 0.000000
-0.075000 0.000000 0.000000
-0.075000 0.025000 0.000000
-0.075000 0.050000 0.000000
-0.075000 0.075000 0.000000
-0.075000 0.100000 0.000000
-0.075000 0.125000 0.000000
-0.075000 0.150000 0.000000
-0.075000 0.175000 0.000000
-0.075000 0.200000 0.000000
-0.075000 0.225000 0.000000
-0.075000 0.250000 0.000000
-0.075000 0.275000 0.000000
-0.075000 0.300000 0.000000
-0.075000 0.325000 0.000000
-0.075000 0.350000 0.000000
-0.075000 0.375000 0.000000
-0.075000 0.400000 0.000000
-0.075000 0.425000 0.000000
-0.075000 0.450000 0.000000
-0.075000 0.475000 0.000000
-0.075000 0.500000 0.000000
-0.075000 0.525000 0.000000
-0.075000 0.550000 0.000000
-0.075000 0.575000 0.000000
-0.075000 0.600000 0.000000
-0.050000 -0.075000 0.000000
-0.050000 -0.050000 0.000000
-0.050000 -0.025000 0.000000
-0.050000 0.000000 0.000000
-0.050000 0.025000 0.000000
-0.050000 0.050000 0.000000
-0.050000 0.075000 0.000000
-0.050000 0.100000 0.000000
-0.050000 0.125000 0.000000
-0.050000 0.150000 0.000000
-0.050000 0.175000 0.000000
-0.050000 0.200000 0.000000
-0.050000 0.225000 0.000000
-0.050000 0.250000 0.000000
-0.050000 0.275000 0.000000
-0.050000 0.300000 0.000000
-0.050000 0.325000 0.000000
-0.050000 0.350000 0.000000
-0.050000 0.375000 0.000000
-0.050000 0.400000 0.000000
-0.050000 0.425000 0.000000
-0.050000 0.450000 0.000000
-0.050000 0.475000 0.000000
-0.050000 0.500000 0.000000
-0.050000 0.525000 0.000000
-0.050000 0.550000 0.000000
-0.050000 0.575000 0.000000
-0.050000 0.600000 0.000000
-0.025000 -0.075000 0.000000
-0.025000 -0.050000 0.000000
-0.025000 -0.025000 0.000000
-0.025000 0.000000 0.000000
-0.025000 0.025000 0.000000
-0.025000 0.050000 0.000000
-0.025000 0.075000 0.000000
-0.025000 0.100000 0.000000
-0.025000 0.125000 0.000000
-0.025000 0.150000 0.000000
-0.025000 0.175000 0.000000
-0.025000 0.200000 0.000000
-0.025000 0.225000 0.000000
-0.025000 0.250000 0.000000
-0.025000 0.275000 0.000000
-0.025000 0.300000 0.000000
-0.025000 0.325000 0.000000
-0.025000 0.350000 0.000000
-0.025000 0.375000 0.000000
-0.025000 0.400000 0.000000
-0.025000 0.425000 0.000000
-0.025000 0.450000 0.000000
-0.025000 0.475000 0.000000
-0.025000 0.500000 0.000000
-0.025000 0.525000 0.000000
-0.025000 0.550000 0.000000
-0.025000 0.575000 0.000000
-0.025000 0.600000 0.000000
0.000000 -0.075000 0.000000
0.000000 -0.050000 0.000000
0.000000 -0.025000 0.000000
0.000000 0.000000 0.000000
0.000000 0.025000 0.000000
0.000000 0.050000 0.000000
0.000000 0.075000 0.000000
0.000000 0.100000 0.000000
0.000000 0.125000 0.000000
0.000000 0.150000 0.000000
0.000000 0.175000 0.000000
0.000000 0.200000 0.000000
0.000000 0.225000 0.000000
0.000000 0.250000 0.000000
0.000000 0.275000 0.000000
0.000000 0.300000 0.000000
0.000000 0.325000 0.000000
0.000000 0.350000 0.000000
0.000000 0.375000 0.000000
0.000000 0.400000 0.000000
0.000000 0.425000 0.000000
0.000000 0.450000 0.000000
0.000000 0.475000 0.000000
0.000000 0.500000 0.000000
0.000000 0.525000 0.000000
0.000000 0.550000 0.000000
0.000000 0.575000 0.000000
0.000000 0.600000 0.000000
0.025000 -0.075000 0.000000
0.025000 -0.050000 0.000000
0.025000 -0.025000 0.000000
0.025000 0.000000 0.000000
0.113978 0.023797 0.000000
0.087752 0.022579 0.000000
0.070690 0.036780 0.000000
0.051632 0.025567 0.000000
0.124276 0.044131 0.000000
0.024846 0.024292 0.000000
0.139505 0.059844 0.000000
0.103831 0.056629 0.000000
0.082561 0.062290 0.000000
0.055570 0.057048 0.000000
0.096438 0.078782 0.000000
0.058710 0.080251 0.000000
0.032066 0.046369 0.000000
0.024731 0.067109 0.000000
0.022706 0.090433 0.000000
0.040637 0.117701 0.000000
0.053360 0.135912 0.000000
0.019791 0.133404 0.000000
0.036926 0.175842 0.000000
0.031042 0.153197 0.000000
0.050000 -0.075000 0.000000
0.050000 -0.050000 0.000000
0.050000 -0.025000 0.000000
0.050000 0.000000 0.000000
0.143071 0.022272 0.000000
0.159620 0.039632 0.000000
0.180267 0.040999 0.000000
0.249992 0.042133 0.000000
0.208260 0.069085 0.000000
0.209275 0.090987 0.000000
0.186868 0.069389 0.000000
0.254654 0.107925 0.000000
0.120451 0.080771 0.000000
0.163008 0.066337 0.000000
0.138541 0.095910 0.000000
0.164027 0.088147 0.000000
0.046885 0.096158 0.000000
0.125932 0.109165 0.000000
0.085952 0.103661 0.000000
0.102343 0.120136 0.000000
0.071127 0.113239 0.000000
0.080114 0.147630 0.000000
0.059795 0.159075 0.000000
0.078312 0.169117 0.000000
0.075000 -0.075000 0.000000
0.075000 -0.050000 0.000000
0.075000 -0.025000 0.000000
0.075000 0.000000 0.000000
0.189120 0.018765 0.000000
0.233805 0.058209 0.000000
0.250526 0.021282 0.000000
0.207699 0.041795 0.000000
0.284309 0.044544 0.000000
0.371413 0.037640 0.000000
0.367328 0.079447 0.000000
0.240680 0.079140 0.000000
0.294915 0.071076 0.000000
0.274478 0.129172 0.000000
0.261453 0.086414 0.000000
0.188505 0.105203 0.000000
0.164898 0.113747 0.000000
0.142683 0.133421 0.000000
0.114574 0.133723 0.000000
0.104570 0.160830 0.000000
0.123841 0.167088 0.000000
0.158253 0.164569 0.000000
0.167119 0.137538 0.000000
0.094188 0.179915 0.000000
0.100000 -0.075000 0.000000
0.100000 -0.050000 0.000000
0.100000 -0.025000 0.000000
0.100000 0.000000 0.000000
0.308190 0.036903 0.000000
0.288323 0.021602 0.000000
0.348088 0.031335 0.000000
0.431787 0.066626 0.000000
0.223843 0.030153 0.000000
0.415273 0.021453 0.000000
0.419008 0.048390 0.000000
0.386605 0.054976 0.000000
0.349945 0.054857 0.000000
0.371731 0.100397 0.000000
0.270187 0.058218 0.000000
0.317894 0.057047 0.000000
0.303810 0.090443 0.000000
0.278624 0.099520 0.000000
0.225174 0.104771 0.000000
0.143156 0.156832 0.000000
0.259145 0.137940 0.000000
0.222020 0.125034 0.000000
0.206225 0.150376 0.000000
0.186132 0.126585 0.000000
0.125000 -0.075000 0.000000
0.125000 -0.050000 0.000000
0.125000 -0.025000 0.000000
0.125000 0.000000 0.000000
0.496889 0.019670 0.000000
0.382971 0.021365 0.000000
0.631726 0.023459 0.000000
0.602283 0.024631 0.000000
0.608198 0.046713 0.000000
0.329005 0.021713 0.000000
0.454380 0.022833 0.000000
0.474534 0.032929 0.000000
0.462212 0.056287 0.000000
0.391533 0.072774 0.000000
0.465648 0.086881 0.000000
0.424797 0.082805 0.000000
0.342221 0.075992 0.000000
0.276600 0.161505 0.000000
0.260628 0.165106 0.000000
0.296605 0.122428 0.000000
0.377362 0.139399 0.000000
0.246106 0.164787 0.000000
0.316715 0.137291 0.000000
0.217877 0.141766 0.000000
0.150000 -0.075000 0.000000
0.150000 -0.050000 0.000000
0.150000 -0.025000 0.000000
0.150000 0.000000 0.000000
0.739974 0.028170 0.000000
0.652812 0.029199 0.000000
0.715100 0.051874 0.000000
0.655239 0.060338 0.000000
0.720704 0.022589 0.000000
0.745568 0.061195 0.000000
0.583222 0.036504 0.000000
0.675572 0.038859 0.000000
0.567957 0.025210 0.000000
0.585755 0.070910 0.000000
0.539303 0.024135 0.000000
0.433443 0.036692 0.000000
0.518617 0.036173 0.000000
0.519717 0.059001 0.000000
0.439993 0.112629 0.000000
0.358732 0.110457 0.000000
0.324136 0.081867 0.000000
0.359579 0.136242 0.000000
0.329580 0.131730 0.000000
0.320716 0.115257 0.000000
0.175000 -0.075000 0.000000
0.175000 -0.050000 0.000000
0.175000 -0.025000 0.000000
0.175000 0.000000 0.000000
0.915791 0.082864 0.000000
0.808161 0.027070 0.000000
0.899380 0.024476 0.000000
0.923873 0.023936 0.000000
0.876385 0.026176 0.000000
0.761166 0.032437 0.000000
0.850590 0.023198 0.000000
0.826144 0.032725 0.000000
0.737525 0.076536 0.000000
0.778031 0.023033 0.000000
0.633031 0.048617 0.000000
0.675667 0.069558 0.000000
0.546032 0.045300 0.000000
0.556489 0.102220 0.000000
0.488108 0.052093 0.000000
0.556755 0.064293 0.000000
0.491511 0.068217 0.000000
0.454668 0.117196 0.000000
0.405498 0.109999 0.000000
0.406941 0.092687 0.000000
0.200000 -0.075000 0.000000
0.200000 -0.050000 0.000000
0.200000 -0.025000 0.000000
0.200000 0.000000 0.000000
0.972141 0.277689 0.000000
0.970511 0.020402 0.000000
0.968897 0.173468 0.000000
0.943473 0.028333 0.000000
0.985970 0.039159 0.000000
0.968860 0.050928 0.000000
0.950985 0.061788 0.000000
0.929656 0.053486 0.000000
0.874863 0.052633 0.000000
0.862029 0.069683 0.000000
0.826524 0.063450 0.000000
0.683775 0.021165 0.000000
0.788493 0.073225 0.000000
0.702833 0.047279 0.000000
0.567751 0.093938 0.000000
0.617286 0.103342 0.000000
0.632568 0.078862 0.000000
0.533009 0.073304 0.000000
0.527199 0.092697 0.000000
0.468792 0.112740 0.000000
0.225000 -0.075000 0.000000
0.225000 -0.050000 0.000000
0.225000 -0.025000 0.000000
0.225000 0.000000 0.000000
1.005363 0.089271 0.000000
0.983911 0.425487 0.000000
1.005687 0.031745 0.000000
0.955358 0.199310 0.000000
0.993027 0.067483 0.000000
0.973020 0.210872 0.000000
0.987593 0.154790 0.000000
0.984062 0.093764 0.000000
0.963729 0.080371 0.000000
0.991863 0.115863 0.000000
0.936434 0.090557 0.000000
0.940754 0.125831 0.000000
0.918352 0.100231 0.000000
0.890985 0.066406 0.000000
0.809566 0.063707 0.000000
0.773596 0.068997 0.000000
0.744638 0.087505 0.000000
0.648939 0.081637 0.000000
0.590368 0.089310 0.000000
0.477272 0.098334 0.000000
0.250000 -0.075000 0.000000
0.250000 -0.050000 0.000000
0.250000 -0.025000 0.000000
0.250000 0.000000 0.000000
1.004058 0.453174 0.000000
0.964803 0.363669 0.000000
0.989867 0.204558 0.000000
0.996419 0.182493 0.000000
0.958022 0.432015 0.000000
0.992500 0.227504 0.000000
0.943129 0.363243 0.000000
0.988236 0.320637 0.000000
0.935951 0.231112 0.000000
1.002167 0.140845 0.000000
0.957684 0.149169 0.000000
0.947411 0.178505 0.000000
0.975675 0.128856 0.000000
0.941042 0.144697 0.000000
0.951751 0.108689 0.000000
0.906308 0.057736 0.000000
0.851559 0.046058 0.000000
0.792747 0.049599 0.000000
0.695394 0.095880 0.000000
0.607961 0.072481 0.000000
0.275000 -0.075000 0.000000
0.275000 -0.050000 0.000000
0.275000 -0.025000 0.000000
0.275000 0.000000 0.000000
0.300000 -0.075000 0.000000
0.300000 -0.050000 0.000000
0.300000 -0.025000 0.000000
0.300000 0.000000 0.000000
0.325000 -0.075000 0.000000
0.325000 -0.050000 0.000000
0.325000 -0.025000 0.000000
0.325000 0.000000 0.000000
0.350000 -0.075000 0.000000
0.350000 -0.050000 0.000000
0.350000 -0.025000 0.000000
0.350000 0.000000 0.000000
0.375000 -0.075000 0.000000
0.375000 -0.050000 0.000000
0.375000 -0.025000 0.000000
0.375000 0.000000 0.000000
0.400000 -0.075000 0.000000
0.400000 -0.050000 0.000000
0.400000 -0.025000 0.000000
0.400000 0.000000 0.000000
0.425000 -0.075000 0.000000
0.425000 -0.050000 0.000000
0.425000 -0.025000 0.000000
0.425000 0.000000 0.000000
0.450000 -0.075000 0.000000
0.450000 -0.050000 0.000000
0.450000 -0.025000 0.000000
0.450000 0.000000 0.000000
0.475000 -0.075000 0.000000
0.475000 -0.050000 0.000000
0.475000 -0.025000 0.000000
0.475000 0.000000 0.000000
0.500000 -0.075000 0.000000
0.500000 -0.050000 0.000000
0.500000 -0.025000 0.000000
0.500000 0.000000 0.000000
0.525000 -0.075000 0.000000
0.525000 -0.050000 0.000000
0.525000 -0.025000 0.000000
0.525000 0.000000 0.000000
0.550000 -0.075000 0.000000
0.550000 -0.050000 0.000000
0.550000 -0.025000 0.000000
0.550000 0.000000 0.000000
0.575000 -0.075000 0.000000
0.575000 -0.050000 0.000000
0.575000 -0.025000 0.000000
0.575000 0.000000 0.000000
0.600000 -0.075000 0.000000
0.600000 -0.050000 0.000000
0.600000 -0.025000 0.000000
0.600000 0.000000 0.000000
0.625000 -0.075000 0.000000
0.625000 -0.050000 0.000000
0.625000 -0.025000 0.000000
0.625000 0.000000 0.000000
0.650000 -0.075000 0.000000
0.650000 -0.050000 0.000000
0.650000 -0.025000 0.000000
0.650000 0.000000 0.000000
0.675000 -0.075000 0.000000
0.675000 -0.050000 0.000000
0.675000 -0.025000 0.000000
0.675000 0.000000 0.000000
0.700000 -0.075000 0.000000
0.700000 -0.050000 0.000000
0.700000 -0.025000 0.000000
0.700000 0.000000 0.000000
0.725000 -0.075000 0.000000
0.725000 -0.050000 0.000000
0.725000 -0.025000 0.000000
0.725000 0.000000 0.000000
0.750000 -0.075000 0.000000
0.750000 -0.050000 0.000000
0.750000 -0.025000 0.000000
0.750000 0.000000 0.000000
0.775000 -0.075000 0.000000
0.775000 -0.050000 0.000000
0.775000 -0.025000 0.000000
0.775000 0.000000 0.000000
0.800000 -0.075000 0.000000
0.800000 -0.050000 0.000000
0.800000 -0.025000 0.000000
0.800000 0.000000 0.000000
0.825000 -0.075000 0.000000
0.825000 -0.050000 0.000000
0.825000 -0.025000 0.000000
0.825000 0.000000 0.000000
0.850000 -0.075000 0.000000
0.850000 -0.050000 0.000000
0.850000 -0.025000 0.000000
0.850000 0.000000 0.000000
0.875000 -0.075000 0.000000
0.875000 -0.050000 0.000000
0.875000 -0.025000 0.000000
0.875000 0.000000 0.000000
0.900000 -0.075000 0.000000
0.900000 -0.050000 0.000000
0.900000 -0.025000 0.000000
0.900000 0.000000 0.000000
0.925000 -0.075000 0.000000
0.925000 -0.050000 0.000000
0.925000 -0.025000 0.000000
0.925000 0.000000 0.000000
0.950000 -0.075000 0.000000
0.950000 -0.050000 0.000000
0.950000 -0.025000 0.000000
0.950000 0.000000 0.000000
0.975000 -0.075000 0.000000
0.975000 -0.050000 0.000000
0.975000 -0.025000 0.000000
0.975000 0.000000 0.000000
1.000000 -0.075000 0.000000
1.000000 -0.050000 0.000000
1.000000 -0.025000 0.000000
1.000000 0.000000 0.000000
1.025000 -0.075000 0.000000
1.025000 -0.050000 0.000000
1.025000 -0.025000 0.000000
1.025000 0.000000 0.000000
1.025000 0.025000 0.000000
1.025000 0.050000 0.000000
1.025000 0.075000 0.000000
1.025000 0.100000 0.000000
1.025000 0.125000 0.000000
1.025000 0.150000 0.000000
1.025000 0.175000 0.000000
1.025000 0.200000 0.000000
1.025000 0.225000 0.000000
1.025000 0.250000 0.000000
1.025000 0.275000 0.000000
1.025000 0.300000 0.000000
1.025000 0.325000 0.000000
1.025000 0.350000 0.000000
1.025000 0.375000 0.000000
1.025000 0.400000 0.000000
1.025000 0.425000 0.000000
1.025000 0.450000 0.000000
1.025000 0.475000 0.000000
1.025000 0.500000 0.000000
1.025000 0.525000 0.000000
1.025000 0.550000 0.000000
1.025000 0.575000 0.000000
1.025000 0.600000 0.000000
1.050000 -0.075000 0.000000
1.050000 -0.050000 0.000000
1.050000 -0.025000 0.000000
1.050000 0.000000 0.000000
1.050000 0.025000 0.000000
1.050000 0.050000 0.000000
1.050000 0.075000 0.000000
1.050000 0.100000 0.000000
1.050000 0.125000 0.000000
1.050000 0.150000 0.000000
1.050000 0.175000 0.000000
1.050000 0.200000 0.000000
1.050000 0.225000 0.000000
1.050000 0.250000 0.000000
1.050000 0.275000 0.000000
1.050000 0.300000 0.000000
1.050000 0.325000 0.000000
1.050000 0.350000 0.000000
1.050000 0.375000 0.000000
1.050000 0.400000 0.000000
1.050000 0.425000 0.000000
1.050000 0.450000 0.000000
1.050000 0.475000 0.000000
1.050000 0.500000 0.000000
1.050000 0.525000 0.000000
1.050000 0.550000 0.000000
1.050000 0.575000 0.000000
1.050000 0.600000 0.000000
1.075000 -0.075000 0.000000
1.075000 -0.050000 0.000000
1.075000 -0.025000 0.000000
1.075000 0.000000 0.000000
1.075000 0.025000 0.000000
1.075000 0.050000 0.000000
1.075000 0.075000 0.000000
1.075000 0.100000 0.000000
1.075000 0.125000 0.000000
1.075000 0.150000 0.000000
1.075000 0.175000 0.000000
1.075000 0.200000 0.000000
1.075000 0.225000 0.000000
1.075000 0.250000 0.000000
1.075000 0.275000 0.000000
1.075000 0.300000 0.000000
1.075000 0.325000 0.000000
1.075000 0.350000 0.000000
1.075000 0.375000 0.000000
1.075000 0.400000 0.000000
1.075000 0.425000 0.000000
1.075000 0.450000 0.000000
1.075000 0.475000 0.000000
1.075000 0.500000 0.000000
1.075000 0.525000 0.000000
1.075000 0.550000 0.000000
1.075000 0.575000 0.000000
1.075000 0.600000 0.000000
1.100000 -0.075000 0.000000
1.100000 -0.050000 0.000000
1.100000 -0.025000 0.000000
1.100000 0.000000 0.000000
1.100000 0.025000 0.000000
1.100000 0.050000 0.000000
1.100000 0.075000 0.000000
1.100000 0.100000 0.000000
1.100000 0.125000 0.000000
1.100000 0.150000 0.000000
1.100000 0.175000 0.000000
1.100000 0.200000 0.000000
1.100000 0.225000 0.000000
1.100000 0.250000 0.000000
1.100000 0.275000 0.000000
1.100000 0.300000 0.000000
1.100000 0.325000 0.000000
1.100000 0.350000 0.000000
1.100000 0.375000 0.000000
1.100000 0.400000 0.000000
1.100000 0.425000 0.000000
1.100000 0.450000 0.000000
1.100000 0.475000 0.000000
1.100000 0.500000 0.000000
1.100000 0.525000 0.000000
1.100000 0.550000 0.000000
1.100000 0.575000 0.000000
1.100000 0.600000 0.000000
</DataArray>
</Points>
<PointData>
<DataArray NumberOfComponents='1' type='Int32' Name='ParticleType' format='ascii'>
3
3
3
3
3
3
3
3
3
3
3
3
3
3
3
3
3
3
3
3
3
3
3
3
3
3
2
2
3
3
3
3
3
3
3
3
3
3
3
3
3
3
3
3
3
3
3
3
3
3
3
3
3
3
2
2
3
3
2
2
2
2
2
2
2
2
2
2
2
2
2
2
2
2
2
2
2
2
2
2
2
2
2
2
3
3
2
2
2
2
2
2
2
2
2
2
2
2
2
2
2
2
2
2
2
2
2
2
2
2
2
2
3
3
2
2
0
0
0
0
0
0
0
0
0
0
0
0
0
0
0
0
0
0
0
0
3
3
2
2
0
0
0
0
0
0
0
0
0
0
0
0
0
0
0
0
0
0
0
0
3
3
2
2
0
0
0
0
0
0
0
0
0
0
0
0
0
0
0
0
0
0
0
0
3
3
2
2
0
0
0
0
0
0
0
0
0
0
0
0
0
0
0
0
0
0
0
0
3
3
2
2
0
0
0
0
0
0
0
0
0
0
0
0
0
0
0
0
0
0
0
0
3
3
2
2
0
0
0
0
0
0
0
0
0
0
0
0
0
0
0
0
0
0
0
0
3
3
2
2
0
0
0
0
0
0
0
0
0
0
0
0
0
0
0
0
0
0
0
0
3
3
2
2
0
0
0
0
0
0
0
0
0
0
0
0
0
0
0
0
0
0
0
0
3
3
2
2
0
0
0
0
0
0
0
0
0
0
0
0
0
0
0
0
0
0
0
0
3
3
2
2
0
0
0
0
0
0
0
0
0
0
0
0
0
0
0
0
0
0
0
0
3
3
2
2
3
3
2
2
3
3
2
2
3
3
2
2
3
3
2
2
3
3
2
2
3
3
2
2
3
3
2
2
3
3
2
2
3
3
2
2
3
3
2
2
3
3
2
2
3
3
2
2
3
3
2
2
3
3
2
2
3
3
2
2
3
3
2
2
3
3
2
2
3
3
2
2
3
3
2
2
3
3
2
2
3
3
2
2
3
3
2
2
3
3
2
2
3
3
2
2
3
3
2
2
3
3
2
2
3
3
2
2
3
3
2
2
3
3
2
2
3
3
2
2
2
2
2
2
2
2
2
2
2
2
2
2
2
2
2
2
2
2
2
2
2
2
2
2
3
3
2
2
2
2
2
2
2
2
2
2
2
2
2
2
2
2
2
2
2
2
2
2
2
2
2
2
3
3
3
3
3
3
3
3
3
3
3
3
3
3
3
3
3
3
3
3
3
3
3
3
3
3
2
2
3
3
3
3
3
3
3
3
3
3
3
3
3
3
3
3
3
3
3
3
3
3
3
3
3
3
2
2
</DataArray>
<DataArray NumberOfComponents='1' type='Float32' Name='Velocity' format='ascii'>
0.000000
0.000000
0.000000
0.000000
0.000000
0.000000
0.000000
0.000000
0.000000
0.000000
0.000000
0.000000
0.000000
0.000000
0.000000
0.000000
0.000000
0.000000
0.000000
0.000000
0.000000
0.000000
0.000000
0.000000
0.000000
0.000000
0.000000
0.000000
0.000000
0.000000
0.000000
0.000000
0.000000
0.000000
0.000000
0.000000
0.000000
0.000000
0.000000
0.000000
0.000000
0.000000
0.000000
0.000000
0.000000
0.000000
0.000000
0.000000
0.000000
0.000000
0.000000
0.000000
0.000000
0.000000
0.000000
0.000000
0.000000
0.000000
0.000000
0.000000
0.000000
0.000000
0.000000
0.000000
0.000000
0.000000
0.000000
0.000000
0.000000
0.000000
0.000000
0.000000
0.000000
0.000000
0.000000
0.000000
0.000000
0.000000
0.000000
0.000000
0.000000
0.000000
0.000000
0.000000
0.000000
0.000000
0.000000
0.000000
0.000000
0.000000
0.000000
0.000000
0.000000
0.000000
0.000000
0.000000
0.000000
0.000000
0.000000
0.000000
0.000000
0.000000
0.000000
0.000000
0.000000
0.000000
0.000000
0.000000
0.000000
0.000000
0.000000
0.000000
0.000000
0.000000
0.000000
0.000000
0.683086
0.473102
0.419576
0.413923
0.737033
0.179256
0.611037
0.301545
0.528587
0.136755
0.389924
0.457014
0.539947
0.280802
0.663771
0.319296
0.572578
0.685925
0.754649
0.623932
0.000000
0.000000
0.000000
0.000000
0.290278
0.442367
0.816712
0.609097
0.703937
0.850879
0.865651
1.119550
0.308863
0.860658
0.617211
1.012378
0.486841
0.429139
0.219104
0.702681
0.268724
0.482402
0.533202
0.616707
0.000000
0.000000
0.000000
0.000000
0.100676
0.947736
0.497765
0.763278
0.873827
0.889197
1.152863
0.594821
0.502008
1.133613
0.821270
0.314507
0.397737
0.328128
0.622749
0.701936
0.441369
1.115560
0.717674
0.564096
0.000000
0.000000
0.000000
0.000000
0.551975
0.654122
1.025831
1.642903
0.618070
0.968722
1.233850
1.442904
1.357049
1.311879
0.858041
0.948655
1.178051
0.560088
1.223112
0.342479
1.033828
1.074231
0.888937
0.725573
0.000000
0.000000
0.000000
0.000000
1.358993
1.338722
2.136257
1.999797
2.191063
0.821879
1.159082
1.391027
1.230089
1.306228
1.771097
1.323542
1.151594
0.755709
0.879810
1.227180
1.552305
0.700998
1.151279
0.919736
0.000000
0.000000
0.000000
0.000000
2.185612
1.930909
2.376084
2.127884
1.942780
2.119163
2.036225
1.811561
1.967430
1.872372
1.647818
1.205480
1.850232
1.929749
1.411689
1.124438
1.434178
1.411423
1.104082
1.096020
0.000000
0.000000
0.000000
0.000000
2.400925
2.286509
1.926388
1.955838
2.095258
2.088870
2.167843
2.252538
2.054949
2.075041
2.036823
2.485143
1.832844
1.697099
1.655475
1.934290
2.151965
1.257722
1.183944
1.177989
0.000000
0.000000
0.000000
0.000000
3.135689
1.643710
2.166260
1.145837
0.603415
1.300010
1.474054
1.588163
2.298952
1.938025
2.545949
2.135851
2.423514
2.412751
1.477462
1.407705
1.881115
1.976174
1.437757
1.423548
0.000000
0.000000
0.000000
0.000000
0.981782
4.151886
0.348153
2.067544
0.826072
2.222450
1.870593
1.515328
2.271028
1.814935
1.657559
2.488575
1.266097
2.008513
2.541905
2.541356
2.344567
1.991290
1.760920
1.818162
0.000000
0.000000
0.000000
0.000000
3.419816
3.471601
2.413972
2.630235
3.643706
2.847552
3.387411
3.092969
2.353012
2.451544
1.134190
1.359967
1.903253
1.112579
1.603037
2.024219
2.315707
2.276919
2.147851
2.075986
0.000000
0.000000
0.000000
0.000000
0.000000
0.000000
0.000000
0.000000
0.000000
0.000000
0.000000
0.000000
0.000000
0.000000
0.000000
0.000000
0.000000
0.000000
0.000000
0.000000
0.000000
0.000000
0.000000
0.000000
0.000000
0.000000
0.000000
0.000000
0.000000
0.000000
0.000000
0.000000
0.000000
0.000000
0.000000
0.000000
0.000000
0.000000
0.000000
0.000000
0.000000
0.000000
0.000000
0.000000
0.000000
0.000000
0.000000
0.000000
0.000000
0.000000
0.000000
0.000000
0.000000
0.000000
0.000000
0.000000
0.000000
0.000000
0.000000
0.000000
0.000000
0.000000
0.000000
0.000000
0.000000
0.000000
0.000000
0.000000
0.000000
0.000000
0.000000
0.000000
0.000000
0.000000
0.000000
0.000000
0.000000
0.000000
0.000000
0.000000
0.000000
0.000000
0.000000
0.000000
0.000000
0.000000
0.000000
0.000000
0.000000
0.000000
0.000000
0.000000
0.000000
0.000000
0.000000
0.000000
0.000000
0.000000
0.000000
0.000000
0.000000
0.000000
0.000000
0.000000
0.000000
0.000000
0.000000
0.000000
0.000000
0.000000
0.000000
0.000000
0.000000
0.000000
0.000000
0.000000
0.000000
0.000000
0.000000
0.000000
0.000000
0.000000
0.000000
0.000000
0.000000
0.000000
0.000000
0.000000
0.000000
0.000000
0.000000
0.000000
0.000000
0.000000
0.000000
0.000000
0.000000
0.000000
0.000000
0.000000
0.000000
0.000000
0.000000
0.000000
0.000000
0.000000
0.000000
0.000000
0.000000
0.000000
0.000000
0.000000
0.000000
0.000000
0.000000
0.000000
0.000000
0.000000
0.000000
0.000000
0.000000
0.000000
0.000000
0.000000
0.000000
0.000000
0.000000
0.000000
0.000000
0.000000
0.000000
0.000000
0.000000
0.000000
0.000000
0.000000
0.000000
0.000000
0.000000
0.000000
0.000000
0.000000
0.000000
0.000000
0.000000
0.000000
0.000000
0.000000
0.000000
0.000000
0.000000
0.000000
0.000000
0.000000
0.000000
0.000000
0.000000
0.000000
0.000000
0.000000
0.000000
0.000000
0.000000
0.000000
0.000000
0.000000
0.000000
0.000000
0.000000
0.000000
0.000000
0.000000
0.000000
0.000000
0.000000
0.000000
0.000000
0.000000
0.000000
0.000000
0.000000
0.000000
0.000000
0.000000
0.000000
0.000000
0.000000
0.000000
0.000000
0.000000
0.000000
0.000000
</DataArray>
<DataArray NumberOfComponents='1' type='Float32' Name='pressure' format='ascii'>
0.000000
0.000000
0.000000
0.000000
0.000000
0.000000
0.000000
0.000000
0.000000
0.000000
0.000000
0.000000
0.000000
0.000000
0.000000
0.000000
0.000000
0.000000
0.000000
0.000000
0.000000
0.000000
0.000000
0.000000
0.000000
0.000000
0.000000
0.000000
0.000000
0.000000
0.000000
0.000000
0.000000
0.000000
0.000000
0.000000
0.000000
0.000000
0.000000
0.000000
0.000000
0.000000
0.000000
0.000000
0.000000
0.000000
0.000000
0.000000
0.000000
0.000000
0.000000
0.000000
0.000000
0.000000
0.000000
0.000000
0.000000
0.000000
922.173523
722.376465
491.045685
0.000000
1644.011963
2130.836670
3444.272949
1927.808838
0.000000
0.000000
0.000000
0.000000
0.000000
0.000000
0.000000
0.000000
0.000000
0.000000
0.000000
0.000000
0.000000
0.000000
0.000000
0.000000
0.000000
0.000000
0.000000
0.000000
1038.158203
1150.581909
0.000000
0.000000
1484.484131
692.597107
2913.162354
0.000000
0.000000
0.000000
0.000000
0.000000
0.000000
0.000000
0.000000
0.000000
0.000000
0.000000
0.000000
0.000000
0.000000
0.000000
0.000000
0.000000
0.000000
0.000000
0.000000
0.000000
1368.926758
1731.522095
664.463867
516.902100
1851.531006
226.811951
1624.279297
1340.330811
642.698425
545.405518
717.472107
0.000000
658.569397
195.845139
1560.072266
1086.090698
0.000000
346.787506
275.501160
2890.493896
0.000000
0.000000
0.000000
0.000000
1088.076172
250.755157
0.000000
656.502930
1256.602539
1607.730713
2386.165771
1031.832031
0.000000
0.000000
0.000000
1351.590942
53.744667
0.000000
1157.892822
870.629456
94.350525
0.000000
0.000000
1421.746460
0.000000
0.000000
0.000000
0.000000
1944.530884
1276.864014
681.153198
1292.034668
615.150208
0.000000
1312.578369
1961.005615
0.000000
0.000000
0.000000
0.000000
2067.611572
1169.283569
126.112579
880.519592
0.000000
68.419365
0.000000
0.000000
0.000000
0.000000
0.000000
0.000000
2991.528809
2524.822754
598.491699
692.985596
867.313965
0.000000
0.000000
0.000000
0.000000
0.000000
0.000000
0.000000
201.906769
917.591553
237.098755
357.044312
0.000000
0.000000
0.000000
523.235596
0.000000
0.000000
0.000000
0.000000
2999.098389
3046.059570
415.463867
0.000000
2112.087158
1996.854736
45.896004
371.343750
497.477051
765.736511
0.000000
1775.813110
0.000000
0.000000
436.207489
0.000000
0.000000
0.000000
0.000000
0.000000
0.000000
451.916962
0.000000
0.000000
3128.858887
655.833008
0.000000
804.161377
0.000000
283.250031
771.151428
0.000000
0.000000
69.722626
0.000000
63.016735
1014.118713
955.791687
0.000000
77.057816
0.000000
0.000000
385.252686
0.000000
0.000000
161.434647
0.000000
0.000000
3764.306396
1318.741089
0.000000
0.000000
0.000000
2781.306396
2053.553223
0.000000
2235.477539
0.000000
0.000000
0.000000
1614.788940
0.000000
54.048725
0.000000
2857.728271
0.000000
0.000000
547.713013
0.000000
957.559448
0.000000
0.000000
3846.343018
2081.414551
0.000000
3231.767822
0.000000
2629.915771
4947.359863
4585.354492
5639.329102
0.000000
1769.670532
0.000000
0.000000
1784.422852
0.000000
0.000000
0.000000
0.000000
0.000000
0.000000
0.000000
63.833641
0.000000
0.000000
1012.875122
0.000000
6001.830078
0.000000
5511.400391
0.000000
0.000000
0.000000
0.000000
1949.115967
325.353302
1249.546875
4225.185059
0.000000
0.000000
0.000000
0.000000
0.000000
0.000000
0.000000
0.000000
0.000000
0.000000
0.000000
2900.093994
2256.825928
0.000000
0.000000
0.000000
0.000000
0.000000
0.000000
0.000000
0.000000
0.000000
122.754951
3876.446289
0.000000
37.844475
0.000000
173.063873
3384.450684
0.000000
524.383850
0.000000
61.472931
0.000000
0.000000
2145.022461
0.000000
0.000000
0.000000
2320.369141
897.557312
0.000000
0.000000
2737.615723
2747.480957
0.000000
0.000000
1191.975952
0.000000
0.000000
0.000000
2747.433350
1376.092896
0.000000
0.000000
3474.243896
1090.772705
0.000000
0.000000
3353.219971
2881.203857
0.000000
0.000000
3220.099854
2402.502197
0.000000
0.000000
2709.553711
1577.697388
0.000000
0.000000
3783.663574
4114.778809
0.000000
0.000000
441.712952
0.000000
0.000000
0.000000
0.000000
0.000000
0.000000
0.000000
0.000000
0.000000
0.000000
0.000000
754.966492
1144.634155
0.000000
0.000000
1336.869873
1347.159912
0.000000
0.000000
578.132629
0.000000
0.000000
0.000000
2255.246338
1622.338379
0.000000
0.000000
1702.440552
0.000000
0.000000
0.000000
1676.959229
1028.437500
0.000000
0.000000
0.000000
830.179077
0.000000
0.000000
876.972900
499.707916
0.000000
0.000000
0.000000
0.000000
0.000000
0.000000
0.000000
0.000000
0.000000
0.000000
1882.529419
1805.620483
0.000000
0.000000
1830.392578
1817.252930
0.000000
0.000000
3220.592773
3605.357910
0.000000
0.000000
4147.440430
5265.204102
0.000000
0.000000
4135.395508
3706.245361
0.000000
0.000000
5373.089844
5261.183594
0.000000
0.000000
2577.336670
0.000000
0.000000
0.000000
3268.304199
2710.679199
6058.765625
0.000000
2603.672119
5308.284180
0.000000
0.000000
0.000000
0.000000
0.000000
0.000000
0.000000
0.000000
0.000000
0.000000
0.000000
0.000000
0.000000
0.000000
0.000000
0.000000
0.000000
0.000000
0.000000
0.000000
0.000000
0.000000
3536.259277
3924.675537
6094.797852
4780.313965
4989.383789
4773.873535
1883.589478
1032.007202
0.000000
0.000000
0.000000
0.000000
0.000000
0.000000
0.000000
0.000000
0.000000
0.000000
0.000000
1259.729858
0.000000
0.000000
0.000000
0.000000
0.000000
0.000000
0.000000
0.000000
0.000000
0.000000
0.000000
0.000000
0.000000
0.000000
0.000000
0.000000
0.000000
0.000000
0.000000
0.000000
0.000000
0.000000
0.000000
0.000000
0.000000
0.000000
0.000000
0.000000
0.000000
0.000000
0.000000
0.000000
0.000000
0.000000
0.000000
0.000000
0.000000
0.000000
0.000000
0.000000
0.000000
0.000000
0.000000
0.000000
0.000000
0.000000
0.000000
0.000000
0.000000
0.000000
0.000000
0.000000
0.000000
0.000000
0.000000
0.000000
0.000000
0.000000
0.000000
0.000000
0.000000
0.000000
</DataArray>
</PointData>
<Cells>
<DataArray type='Int32' Name='connectivity' format='ascii'>
0
1
2
3
4
5
6
7
8
9
10
11
12
13
14
15
16
17
18
19
20
21
22
23
24
25
26
27
28
29
30
31
32
33
34
35
36
37
38
39
40
41
42
43
44
45
46
47
48
49
50
51
52
53
54
55
56
57
58
59
60
61
62
63
64
65
66
67
68
69
70
71
72
73
74
75
76
77
78
79
80
81
82
83
84
85
86
87
88
89
90
91
92
93
94
95
96
97
98
99
100
101
102
103
104
105
106
107
108
109
110
111
112
113
114
115
116
117
118
119
120
121
122
123
124
125
126
127
128
129
130
131
132
133
134
135
136
137
138
139
140
141
142
143
144
145
146
147
148
149
150
151
152
153
154
155
156
157
158
159
160
161
162
163
164
165
166
167
168
169
170
171
172
173
174
175
176
177
178
179
180
181
182
183
184
185
186
187
188
189
190
191
192
193
194
195
196
197
198
199
200
201
202
203
204
205
206
207
208
209
210
211
212
213
214
215
216
217
218
219
220
221
222
223
224
225
226
227
228
229
230
231
232
233
234
235
236
237
238
239
240
241
242
243
244
245
246
247
248
249
250
251
252
253
254
255
256
257
258
259
260
261
262
263
264
265
266
267
268
269
270
271
272
273
274
275
276
277
278
279
280
281
282
283
284
285
286
287
288
289
290
291
292
293
294
295
296
297
298
299
300
301
302
303
304
305
306
307
308
309
310
311
312
313
314
315
316
317
318