<?xml version='1.0' encoding='UTF-8'?>
<VTKFile xmlns='VTK' byte_order='LittleEndian' version='0.1' type='UnstructuredGrid'>
<UnstructuredGrid>
<Piece NumberOfCells='584' NumberOfPoints='584'>
<Points>
<DataArray NumberOfComponents='3' type='Float32' Name='Position' format='ascii'>
-0.075000 -0.075000 0.000000
-0.075000 -0.050000 0.000000
-0.075000 -0.025000 0.000000
-0.075000 0.000000 0.000000
-0.075000 0.025000 0.000000
-0.075000 0.050000 0.000000
-0.075000 0.075000 0.000000
-0.075000 0.100000 0.000000
-0.075000 0.125000 0.000000
-0.075000 0.150000 0.000000
-0.075000 0.175000 0.000000
-0.075000 0.200000 0.000000
-0.075000 0.225000 0.000000
-0.075000 0.250000 0.000000
-0.075000 0.275000 0.000000
-0.075000 0.300000 0.000000
-0.075000 0.325000 0.000000
-0.075000 0.350000 0.000000
-0.075000 0.375000 0.000000
-0.075000 0.400000 0.000000
-0.075000 0.425000 0.000000
-0.075000 0.450000 0.000000
-0.075000 0.475000 0.000000
-0.075000 0.500000 0.000000
-0.075000 0.525000 0.000000
-0.075000 0.550000 0.000000
-0.075000 0.575000 0.000000
-0.075000 0.600000 0.000000
-0.050000 -0.075000 0.000000
-0.050000 -0.050000 0.000000
-0.050000 -0.025000 0.000000
-0.050000 0.000000 0.000000
-0.050000 0.025000 0.000000
-0.050000 0.050000 0.000000
-0.050000 0.075000 0.000000
-0.050000 0.100000 0.000000
-0.050000 0.125000 0.000000
-0.050000 0.150000 0.000000
-0.050000 0.175000 0.000000
-0.050000 0.200000 0.000000
-0.050000 0.225000 0.000000
-0.050000 0.250000 0.000000
-0.050000 0.275000 0.000000
-0.050000 0.300000 0.000000
-0.050000 0.325000 0.000000
-0.050000 0.350000 0.000000
-0.050000 0.375000 0.000000
-0.050000 0.400000 0.000000
-0.050000 0.425000 0.000000
-0.050000 0.450000 0.000000
-0.050000 0.475000 0.000000
-0.050000 0.500000 0.000000
-0.050000 0.525000 0.000000
-0.050000 0.550000 0.000000
-0.050000 0.575000 0.000000
-0.050000 0.600000 0.000000
-0.025000 -0.075000 0.000000
-0.025000 -0.050000 0.000000
-0.025000 -0.025000 0.000000
-0.025000 0.000000 0.000000
-0.025000 0.025000 0.000000
-0.025000 0.050000 0.000000
-0.025000 0.075000 0.000000
-0.025000 0.100000 0.000000
-0.025000 0.125000 0.000000
-0.025000 0.150000 0.000000
-0.025000 0.175000 0.000000
-0.025000 0.200000 0.000000
-0.025000 0.225000 0.000000
-0.025000 0.250000 0.000000
-0.025000 0.275000 0.000000
-0.025000 0.300000 0.000000
-0.025000 0.325000 0.000000
-0.025000 0.350000 0.000000
-0.025000 0.375000 0.000000
-0.025000 0.400000 0.000000
-0.025000 0.425000 0.000000
-0.025000 0.450000 0.000000
-0.025000 0.475000 0.000000
-0.025000 0.500000 0.000000
-0.025000 0.525000 0.000000
-0.025000 0.550000 0.000000
-0.025000 0.575000 0.000000
-0.025000 0.600000 0.000000
0.000000 -0.075000 0.000000
0.000000 -0.050000 0.000000
0.000000 -0.025000 0.000000
0.000000 0.000000 0.000000
0.000000 0.025000 0.000000
0.000000 0.050000 0.000000
0.000000 0.075000 0.000000
0.000000 0.100000 0.000000
0.000000 0.125000 0.000000
0.000000 0.150000 0.000000
0.000000 0.175000 0.000000
0.000000 0.200000 0.000000
0.000000 0.225000 0.000000
0.000000 0.250000 0.000000
0.000000 0.275000 0.000000
0.000000 0.300000 0.000000
0.000000 0.325000 0.000000
0.000000 0.350000 0.000000
0.000000 0.375000 0.000000
0.000000 0.400000 0.000000
0.000000 0.425000 0.000000
0.000000 0.450000 0.000000
0.000000 0.475000 0.000000
0.000000 0.500000 0.000000
0.000000 0.525000 0.000000
0.000000 0.550000 0.000000
0.000000 0.575000 0.000000
0.000000 0.600000 0.000000
0.025000 -0.075000 0.000000
0.025000 -0.050000 0.000000
0.025000 -0.025000 0.000000
0.025000 0.000000 0.000000
0.273062 0.022940 0.000000
0.240172 0.021317 0.000000
0.220765 0.035547 0.000000
0.175534 0.024291 0.000000
0.355953 0.024321 0.000000
0.068325 0.020523 0.000000
0.452535 0.021111 0.000000
0.306558 0.023286 0.000000
0.199813 0.026778 0.000000
0.151656 0.061970 0.000000
0.263545 0.056727 0.000000
0.175387 0.048489 0.000000
0.152503 0.032176 0.000000
0.040350 0.025244 0.000000
0.020371 0.035645 0.000000
0.037314 0.057290 0.000000
0.091859 0.031833 0.000000
0.078542 0.050022 0.000000
0.076840 0.063835 0.000000
0.123044 0.021667 0.000000
0.050000 -0.075000 0.000000
0.050000 -0.050000 0.000000
0.050000 -0.025000 0.000000
0.050000 0.000000 0.000000
0.332246 0.025928 0.000000
0.551691 0.058539 0.000000
0.653613 0.059098 0.000000
0.626272 0.067761 0.000000
0.634674 0.049260 0.000000
0.670996 0.044419 0.000000
0.541478 0.019485 0.000000
0.754620 0.075875 0.000000
0.389061 0.022646 0.000000
0.386776 0.058676 0.000000
0.545424 0.106844 0.000000
0.458954 0.049321 0.000000
0.051340 0.046972 0.000000
0.440351 0.038106 0.000000
0.241314 0.044220 0.000000
0.282151 0.043786 0.000000
0.189758 0.058344 0.000000
0.295941 0.057607 0.000000
0.113656 0.038017 0.000000
0.132500 0.049677 0.000000
0.075000 -0.075000 0.000000
0.075000 -0.050000 0.000000
0.075000 -0.025000 0.000000
0.075000 0.000000 0.000000
0.342192 0.047997 0.000000
0.570979 0.047916 0.000000
0.580336 0.031723 0.000000
0.501348 0.019535 0.000000
0.865439 0.093343 0.000000
0.853696 0.023685 0.000000
0.862665 0.043643 0.000000
0.611118 0.112285 0.000000
0.802353 0.070427 0.000000
0.783766 0.025048 0.000000
0.639852 0.018823 0.000000
0.510625 0.040193 0.000000
0.422523 0.081840 0.000000
0.359529 0.054693 0.000000
0.383210 0.043388 0.000000
0.330479 0.072688 0.000000
0.309654 0.047591 0.000000
0.512127 0.053554 0.000000
0.427593 0.099906 0.000000
0.209413 0.058683 0.000000
0.100000 -0.075000 0.000000
0.100000 -0.050000 0.000000
0.100000 -0.025000 0.000000
0.100000 0.000000 0.000000
0.672220 0.023911 0.000000
0.598842 0.026546 0.000000
0.798605 0.036749 0.000000
0.929856 0.022062 0.000000
0.424514 0.051473 0.000000
0.904806 0.035075 0.000000
0.925884 0.087244 0.000000
0.866119 0.151607 0.000000
0.885786 0.020669 0.000000
0.890795 0.050359 0.000000
0.695145 0.028782 0.000000
0.705000 0.061215 0.000000
0.822444 0.063517 0.000000
0.815814 0.024381 0.000000
0.695207 0.101804 0.000000
0.414270 0.022323 0.000000
0.737208 0.020764 0.000000
0.841684 0.100120 0.000000
0.617367 0.038657 0.000000
0.538918 0.042714 0.000000
0.125000 -0.075000 0.000000
0.125000 -0.050000 0.000000
0.125000 -0.025000 0.000000
0.125000 0.000000 0.000000
0.925647 0.056817 0.000000
0.905386 0.102261 0.000000
1.000206 0.160981 0.000000
0.962670 0.021965 0.000000
0.970003 0.197943 0.000000
0.743750 0.048150 0.000000
0.838852 0.180106 0.000000
0.921262 0.171838 0.000000
0.923302 0.131555 0.000000
0.896442 0.119136 0.000000
0.955438 0.125045 0.000000
0.862518 0.199636 0.000000
0.766958 0.099285 0.000000
0.761404 0.055414 0.000000
0.682250 0.072310 0.000000
0.759831 0.030946 0.000000
0.888394 0.149182 0.000000
0.582252 0.091715 0.000000
0.798451 0.125454 0.000000
0.663041 0.080828 0.000000
0.150000 -0.075000 0.000000
0.150000 -0.050000 0.000000
0.150000 -0.025000 0.000000
0.150000 0.000000 0.000000
0.806202 0.141056 0.000000
1.003797 0.087079 0.000000
0.976886 0.314936 0.000000
0.776096 0.152716 0.000000
0.985581 0.066143 0.000000
0.744088 0.183606 0.000000
0.980023 0.128611 0.000000
0.795741 0.093027 0.000000
0.997550 0.138445 0.000000
0.951782 0.174158 0.000000
0.978118 0.045660 0.000000
0.906063 0.070165 0.000000
0.940316 0.042015 0.000000
0.956473 0.058300 0.000000
0.930288 0.112440 0.000000
0.873354 0.118127 0.000000
0.835188 0.036730 0.000000
0.883183 0.077934 0.000000
0.863781 0.066561 0.000000
0.712809 0.030842 0.000000
0.175000 -0.075000 0.000000
0.175000 -0.050000 0.000000
0.175000 -0.025000 0.000000
0.175000 0.000000 0.000000
0.465135 0.061896 0.000000
0.993276 0.183336 0.000000
0.986265 0.222501 0.000000
1.004684 0.203890 0.000000
0.973892 0.167008 0.000000
0.797292 0.202976 0.000000
0.990951 0.023118 0.000000
0.868130 0.217246 0.000000
0.788349 0.161195 0.000000
1.004198 0.042868 0.000000
0.917306 0.228636 0.000000
0.949578 0.201861 0.000000
0.853943 0.119668 0.000000
0.956130 0.150545 0.000000
0.970349 0.106643 0.000000
0.808385 0.165167 0.000000
0.999652 0.108030 0.000000
0.898484 0.163795 0.000000
0.828201 0.122156 0.000000
0.881426 0.185418 0.000000
0.200000 -0.075000 0.000000
0.200000 -0.050000 0.000000
0.200000 -0.025000 0.000000
0.200000 0.000000 0.000000
0.793564 0.570922 0.000000
0.762143 0.210099 0.000000
0.836489 0.263431 0.000000
0.974887 0.241615 0.000000
0.841456 0.248374 0.000000
0.878123 0.243262 0.000000
0.932473 0.297356 0.000000
0.981900 0.327000 0.000000
0.893234 0.220470 0.000000
0.719601 0.096066 0.000000
0.997376 0.251704 0.000000
0.969249 0.082543 0.000000
0.643822 0.133219 0.000000
0.777406 0.114925 0.000000
0.906337 0.203987 0.000000
0.821620 0.194311 0.000000
0.938522 0.228365 0.000000
0.840861 0.144496 0.000000
0.931094 0.151569 0.000000
0.948064 0.087558 0.000000
0.225000 -0.075000 0.000000
0.225000 -0.050000 0.000000
0.225000 -0.025000 0.000000
0.225000 0.000000 0.000000
0.869842 0.261258 0.000000
0.948886 1.256630 0.000000
0.924874 0.256228 0.000000
0.640284 0.099562 0.000000
0.504668 0.087847 0.000000
0.651636 0.148135 0.000000
0.889814 0.262547 0.000000
1.003461 0.282795 0.000000
0.945818 0.259997 0.000000
0.802997 0.222493 0.000000
0.993863 0.268963 0.000000
0.724995 0.173667 0.000000
0.589788 0.066141 0.000000
0.837639 0.068227 0.000000
0.777467 0.209686 0.000000
0.835255 0.208991 0.000000
0.783970 0.073992 0.000000
0.721575 0.125865 0.000000
0.745388 0.130048 0.000000
0.742423 0.100523 0.000000
0.250000 -0.075000 0.000000
0.250000 -0.050000 0.000000
0.250000 -0.025000 0.000000
0.250000 0.000000 0.000000
0.949836 0.903229 0.000000
0.764447 0.830236 0.000000
0.749220 0.206661 0.000000
0.847612 0.269641 0.000000
0.602539 0.965589 0.000000
0.875722 0.363636 0.000000
0.631804 0.769459 0.000000
0.723076 0.579447 0.000000
0.546151 0.075001 0.000000
0.908249 0.259296 0.000000
0.623587 0.103025 0.000000
0.704554 0.119523 0.000000
0.819433 0.223366 0.000000
0.716728 0.069721 0.000000
0.758503 0.140060 0.000000
0.859260 0.172764 0.000000
0.595835 0.087778 0.000000
0.923520 0.192894 0.000000
0.671603 0.098261 0.000000
0.962494 0.226455 0.000000
0.275000 -0.075000 0.000000
0.275000 -0.050000 0.000000
0.275000 -0.025000 0.000000
0.275000 0.000000 0.000000
0.300000 -0.075000 0.000000
0.300000 -0.050000 0.000000
0.300000 -0.025000 0.000000
0.300000 0.000000 0.000000
0.325000 -0.075000 0.000000
0.325000 -0.050000 0.000000
0.325000 -0.025000 0.000000
0.325000 0.000000 0.000000
0.350000 -0.075000 0.000000
0.350000 -0.050000 0.000000
0.350000 -0.025000 0.000000
0.350000 0.000000 0.000000
0.375000 -0.075000 0.000000
0.375000 -0.050000 0.000000
0.375000 -0.025000 0.000000
0.375000 0.000000 0.000000
0.400000 -0.075000 0.000000
0.400000 -0.050000 0.000000
0.400000 -0.025000 0.000000
0.400000 0.000000 0.000000
0.425000 -0.075000 0.000000
0.425000 -0.050000 0.000000
0.425000 -0.025000 0.000000
0.425000 0.000000 0.000000
0.450000 -0.075000 0.000000
0.450000 -0.050000 0.000000
0.450000 -0.025000 0.000000
0.450000 0.000000 0.000000
0.475000 -0.075000 0.000000
0.475000 -0.050000 0.000000
0.475000 -0.025000 0.000000
0.475000 0.000000 0.000000
0.500000 -0.075000 0.000000
0.500000 -0.050000 0.000000
0.500000 -0.025000 0.000000
0.500000 0.000000 0.000000
0.525000 -0.075000 0.000000
0.525000 -0.050000 0.000000
0.525000 -0.025000 0.000000
0.525000 0.000000 0.000000
0.550000 -0.075000 0.000000
0.550000 -0.050000 0.000000
0.550000 -0.025000 0.000000
0.550000 0.000000 0.000000
0.575000 -0.075000 0.000000
0.575000 -0.050000 0.000000
0.575000 -0.025000 0.000000
0.575000 0.000000 0.000000
0.600000 -0.075000 0.000000
0.600000 -0.050000 0.000000
0.600000 -0.025000 0.000000
0.600000 0.000000 0.000000
0.625000 -0.075000 0.000000
0.625000 -0.050000 0.000000
0.625000 -0.025000 0.000000
0.625000 0.000000 0.000000
0.650000 -0.075000 0.000000
0.650000 -0.050000 0.000000
0.650000 -0.025000 0.000000
0.650000 0.000000 0.000000
0.675000 -0.075000 0.000000
0.675000 -0.050000 0.000000
0.675000 -0.025000 0.000000
0.675000 0.000000 0.000000
0.700000 -0.075000 0.000000
0.700000 -0.050000 0.000000
0.700000 -0.025000 0.000000
0.700000 0.000000 0.000000
0.725000 -0.075000 0.000000
0.725000 -0.050000 0.000000
0.725000 -0.025000 0.000000
0.725000 0.000000 0.000000
0.750000 -0.075000 0.000000
0.750000 -0.050000 0.000000
0.750000 -0.025000 0.000000
0.750000 0.000000 0.000000
0.775000 -0.075000 0.000000
0.775000 -0.050000 0.000000
0.775000 -0.025000 0.000000
0.775000 0.000000 0.000000
0.800000 -0.075000 0.000000
0.800000 -0.050000 0.000000
0.800000 -0.025000 0.000000
0.800000 0.000000 0.000000
0.825000 -0.075000 0.000000
0.825000 -0.050000 0.000000
0.825000 -0.025000 0.000000
0.825000 0.000000 0.000000
0.850000 -0.075000 0.000000
0.850000 -0.050000 0.000000
0.850000 -0.025000 0.000000
0.850000 0.000000 0.000000
0.875000 -0.075000 0.000000
0.875000 -0.050000 0.000000
0.875000 -0.025000 0.000000
0.875000 0.000000 0.000000
0.900000 -0.075000 0.000000
0.900000 -0.050000 0.000000
0.900000 -0.025000 0.000000
0.900000 0.000000 0.000000
0.925000 -0.075000 0.000000
0.925000 -0.050000 0.000000
0.925000 -0.025000 0.000000
0.925000 0.000000 0.000000
0.950000 -0.075000 0.000000
0.950000 -0.050000 0.000000
0.950000 -0.025000 0.000000
0.950000 0.000000 0.000000
0.975000 -0.075000 0.000000
0.975000 -0.050000 0.000000
0.975000 -0.025000 0.000000
0.975000 0.000000 0.000000
1.000000 -0.075000 0.000000
1.000000 -0.050000 0.000000
1.000000 -0.025000 0.000000
1.000000 0.000000 0.000000
1.025000 -0.075000 0.000000
1.025000 -0.050000 0.000000
1.025000 -0.025000 0.000000
1.025000 0.000000 0.000000
1.025000 0.025000 0.000000
1.025000 0.050000 0.000000
1.025000 0.075000 0.000000
1.025000 0.100000 0.000000
1.025000 0.125000 0.000000
1.025000 0.150000 0.000000
1.025000 0.175000 0.000000
1.025000 0.200000 0.000000
1.025000 0.225000 0.000000
1.025000 0.250000 0.000000
1.025000 0.275000 0.000000
1.025000 0.300000 0.000000
1.025000 0.325000 0.000000
1.025000 0.350000 0.000000
1.025000 0.375000 0.000000
1.025000 0.400000 0.000000
1.025000 0.425000 0.000000
1.025000 0.450000 0.000000
1.025000 0.475000 0.000000
1.025000 0.500000 0.000000
1.025000 0.525000 0.000000
1.025000 0.550000 0.000000
1.025000 0.575000 0.000000
1.025000 0.600000 0.000000
1.050000 -0.075000 0.000000
1.050000 -0.050000 0.000000
1.050000 -0.025000 0.000000
1.050000 0.000000 0.000000
1.050000 0.025000 0.000000
1.050000 0.050000 0.000000
1.050000 0.075000 0.000000
1.050000 0.100000 0.000000
1.050000 0.125000 0.000000
1.050000 0.150000 0.000000
1.050000 0.175000 0.000000
1.050000 0.200000 0.000000
1.050000 0.225000 0.000000
1.050000 0.250000 0.000000
1.050000 0.275000 0.000000
1.050000 0.300000 0.000000
1.050000 0.325000 0.000000
1.050000 0.350000 0.000000
1.050000 0.375000 0.000000
1.050000 0.400000 0.000000
1.050000 0.425000 0.000000
1.050000 0.450000 0.000000
1.050000 0.475000 0.000000
1.050000 0.500000 0.000000
1.050000 0.525000 0.000000
1.050000 0.550000 0.000000
1.050000 0.575000 0.000000
1.050000 0.600000 0.000000
1.075000 -0.075000 0.000000
1.075000 -0.050000 0.000000
1.075000 -0.025000 0.000000
1.075000 0.000000 0.000000
1.075000 0.025000 0.000000
1.075000 0.050000 0.000000
1.075000 0.075000 0.000000
1.075000 0.100000 0.000000
1.075000 0.125000 0.000000
1.075000 0.150000 0.000000
1.075000 0.175000 0.000000
1.075000 0.200000 0.000000
1.075000 0.225000 0.000000
1.075000 0.250000 0.000000
1.075000 0.275000 0.000000
1.075000 0.300000 0.000000
1.075000 0.325000 0.000000
1.075000 0.350000 0.000000
1.075000 0.375000 0.000000
1.075000 0.400000 0.000000
1.075000 0.425000 0.000000
1.075000 0.450000 0.000000
1.075000 0.475000 0.000000
1.075000 0.500000 0.000000
1.075000 0.525000 0.000000
1.075000 0.550000 0.000000
1.075000 0.575000 0.000000
1.075000 0.600000 0.000000
1.100000 -0.075000 0.000000
1.100000 -0.050000 0.000000
1.100000 -0.025000 0.000000
1.100000 0.000000 0.000000
1.100000 0.025000 0.000000
1.100000 0.050000 0.000000
1.100000 0.075000 0.000000
1.100000 0.100000 0.000000
1.100000 0.125000 0.000000
1.100000 0.150000 0.000000
1.100000 0.175000 0.000000
1.100000 0.200000 0.000000
1.100000 0.225000 0.000000
1.100000 0.250000 0.000000
1.100000 0.275000 0.000000
1.100000 0.300000 0.000000
1.100000 0.325000 0.000000
1.100000 0.350000 0.000000
1.100000 0.375000 0.000000
1.100000 0.400000 0.000000
1.100000 0.425000 0.000000
1.100000 0.450000 0.000000
1.100000 0.475000 0.000000
1.100000 0.500000 0.000000
1.100000 0.525000 0.000000
1.100000 0.550000 0.000000
1.100000 0.575000 0.000000
1.100000 0.600000 0.000000
</DataArray>
</Points>
<PointData>
<DataArray NumberOfComponents='1' type='Int32' Name='ParticleType' format='ascii'>
3
3
3
3
3
3
3
3
3
3
3
3
3
3
3
3
3
3
3
3
3
3
3
3
3
3
2
2
3
3
3
3
3
3
3
3
3
3
3
3
3
3
3
3
3
3
3
3
3
3
3
3
3
3
2
2
3
3
2
2
2
2
2
2
2
2
2
2
2
2
2
2
2
2
2
2
2
2
2
2
2
2
2
2
3
3
2
2
2
2
2
2
2
2
2
2
2
2
2
2
2
2
2
2
2
2
2
2
2
2
2
2
3
3
2
2
0
0
0
0
0
0
0
0
0
0
0
0
0
0
0
0
0
0
0
0
3
3
2
2
0
0
0
0
0
0
0
0
0
0
0
0
0
0
0
0
0
0
0
0
3
3
2
2
0
0
0
0
0
0
0
0
0
0
0
0
0
0
0
0
0
0
0
0
3
3
2
2
0
0
0
0
0
0
0
0
0
0
0
0
0
0
0
0
0
0
0
0
3
3
2
2
0
0
0
0
0
0
0
0
0
0
0
0
0
0
0
0
0
0
0
0
3
3
2
2
0
0
0
0
0
0
0
0
0
0
0
0
0
0
0
0
0
0
0
0
3
3
2
2
0
0
0
0
0
0
0
0
0
0
0
0
0
0
0
0
0
0
0
0
3
3
2
2
0
0
0
0
0
0
0
0
0
0
0
0
0
0
0
0
0
0
0
0
3
3
2
2
0
0
0
0
0
0
0
0
0
0
0
0
0
0
0
0
0
0
0
0
3
3
2
2
0
0
0
0
0
0
0
0
0
0
0
0
0
0
0
0
0
0
0
0
3
3
2
2
3
3
2
2
3
3
2
2
3
3
2
2
3
3
2
2
3
3
2
2
3
3
2
2
3
3
2
2
3
3
2
2
3
3
2
2
3
3
2
2
3
3
2
2
3
3
2
2
3
3
2
2
3
3
2
2
3
3
2
2
3
3
2
2
3
3
2
2
3
3
2
2
3
3
2
2
3
3
2
2
3
3
2
2
3
3
2
2
3
3
2
2
3
3
2
2
3
3
2
2
3
3
2
2
3
3
2
2
3
3
2
2
3
3
2
2
3
3
2
2
2
2
2
2
2
2
2
2
2
2
2
2
2
2
2
2
2
2
2
2
2
2
2
2
3
3
2
2
2
2
2
2
2
2
2
2
2
2
2
2
2
2
2
2
2
2
2
2
2
2
2
2
3
3
3
3
3
3
3
3
3
3
3
3
3
3
3
3
3
3
3
3
3
3
3
3
3
3
2
2
3
3
3
3
3
3
3
3
3
3
3
3
3
3
3
3
3
3
3
3
3
3
3
3
3
3
2
2
</DataArray>
<DataArray NumberOfComponents='1' type='Float32' Name='Velocity' format='ascii'>
0.000000
0.000000
0.000000
0.000000
0.000000
0.000000
0.000000
0.000000
0.000000
0.000000
0.000000
0.000000
0.000000
0.000000
0.000000
0.000000
0.000000
0.000000
0.000000
0.000000
0.000000
0.000000
0.000000
0.000000
0.000000
0.000000
0.000000
0.000000
0.000000
0.000000
0.000000
0.000000
0.000000
0.000000
0.000000
0.000000
0.000000
0.000000
0.000000
0.000000
0.000000
0.000000
0.000000
0.000000
0.000000
0.000000
0.000000
0.000000
0.000000
0.000000
0.000000
0.000000
0.000000
0.000000
0.000000
0.000000
0.000000
0.000000
0.000000
0.000000
0.000000
0.000000
0.000000
0.000000
0.000000
0.000000
0.000000
0.000000
0.000000
0.000000
0.000000
0.000000
0.000000
0.000000
0.000000
0.000000
0.000000
0.000000
0.000000
0.000000
0.000000
0.000000
0.000000
0.000000
0.000000
0.000000
0.000000
0.000000
0.000000
0.000000
0.000000
0.000000
0.000000
0.000000
0.000000
0.000000
0.000000
0.000000
0.000000
0.000000
0.000000
0.000000
0.000000
0.000000
0.000000
0.000000
0.000000
0.000000
0.000000
0.000000
0.000000
0.000000
0.000000
0.000000
0.000000
0.000000
0.235623
0.235054
0.292087
0.121338
0.078088
0.120446
0.116470
0.175435
0.161882
0.105535
0.209825
0.199163
0.183706
0.135578
0.113532
0.093694
0.040675
0.140785
0.165110
0.054283
0.000000
0.000000
0.000000
0.000000
0.398324
0.767589
0.564447
1.088687
0.437546
0.182628
0.879629
0.244208
0.183485
0.230704
0.469755
0.339071
0.131801
0.613820
0.342532
0.226276
0.453747
0.324201
0.106693
0.303153
0.000000
0.000000
0.000000
0.000000
0.630331
1.294245
0.802306
0.410255
0.326090
0.241914
0.098095
2.332191
0.799117
0.548530
0.225908
1.073114
0.808864
0.529623
0.568725
0.629189
0.316822
0.199305
0.894804
0.215604
0.000000
0.000000
0.000000
0.000000
0.341377
0.436447
0.329378
0.070812
0.204948
0.162288
0.253375
1.060949
0.103659
0.264921
0.184314
0.567256
0.198410
0.138216
1.621784
0.759196
0.237593
1.325655
1.110302
0.459054
0.000000
0.000000
0.000000
0.000000
0.435150
0.270113
0.230540
0.098282
0.315791
0.538354
1.331333
0.376178
0.520851
0.549226
0.301916
0.492167
0.566230
0.269141
0.335427
0.338211
0.395814
0.140121
1.241708
0.913298
0.000000
0.000000
0.000000
0.000000
1.218614
0.226558
0.432791
1.366126
0.330771
2.335295
0.201674
0.859587
0.270625
0.438501
0.179159
0.549096
0.216613
0.190745
0.381660
0.237931
0.192619
0.458759
0.674981
0.309241
0.000000
0.000000
0.000000
0.000000
0.049862
0.342984
0.349600
0.386912
0.175738
1.963255
0.173162
1.046925
1.180819
0.168097
0.624531
0.579599
0.701828
0.329697
0.356637
1.464856
0.417048
0.656836
0.699206
0.931850
0.000000
0.000000
0.000000
0.000000
2.008765
1.652909
1.215978
1.015994
1.374008
0.883964
1.315466
0.443341
0.779088
1.166955
0.726528
0.536182
3.117498
1.606129
0.177999
1.511667
0.775312
1.090102
0.258696
0.167574
0.000000
0.000000
0.000000
0.000000
0.426639
0.947151
0.398086
1.600241
0.405380
2.815889
0.653814
0.801237
0.706986
1.343998
0.865779
2.077010
1.323652
0.627554
1.826044
2.096424
0.317581
2.095706
1.802754
0.936597
0.000000
0.000000
0.000000
0.000000
1.680858
1.690354
2.891535
1.883657
1.663916
2.303429
1.860856
2.107994
2.601167
0.850057
2.187605
2.517466
1.666288
0.355603
1.849469
0.592534
1.376965
0.818029
2.478855
0.229431
0.000000
0.000000
0.000000
0.000000
0.000000
0.000000
0.000000
0.000000
0.000000
0.000000
0.000000
0.000000
0.000000
0.000000
0.000000
0.000000
0.000000
0.000000
0.000000
0.000000
0.000000
0.000000
0.000000
0.000000
0.000000
0.000000
0.000000
0.000000
0.000000
0.000000
0.000000
0.000000
0.000000
0.000000
0.000000
0.000000
0.000000
0.000000
0.000000
0.000000
0.000000
0.000000
0.000000
0.000000
0.000000
0.000000
0.000000
0.000000
0.000000
0.000000
0.000000
0.000000
0.000000
0.000000
0.000000
0.000000
0.000000
0.000000
0.000000
0.000000
0.000000
0.000000
0.000000
0.000000
0.000000
0.000000
0.000000
0.000000
0.000000
0.000000
0.000000
0.000000
0.000000
0.000000
0.000000
0.000000
0.000000
0.000000
0.000000
0.000000
0.000000
0.000000
0.000000
0.000000
0.000000
0.000000
0.000000
0.000000
0.000000
0.000000
0.000000
0.000000
0.000000
0.000000
0.000000
0.000000
0.000000
0.000000
0.000000
0.000000
0.000000
0.000000
0.000000
0.000000
0.000000
0.000000
0.000000
0.000000
0.000000
0.000000
0.000000
0.000000
0.000000
0.000000
0.000000
0.000000
0.000000
0.000000
0.000000
0.000000
0.000000
0.000000
0.000000
0.000000
0.000000
0.000000
0.000000
0.000000
0.000000
0.000000
0.000000
0.000000
0.000000
0.000000
0.000000
0.000000
0.000000
0.000000
0.000000
0.000000
0.000000
0.000000
0.000000
0.000000
0.000000
0.000000
0.000000
0.000000
0.000000
0.000000
0.000000
0.000000
0.000000
0.000000
0.000000
0.000000
0.000000
0.000000
0.000000
0.000000
0.000000
0.000000
0.000000
0.000000
0.000000
0.000000
0.000000
0.000000
0.000000
0.000000
0.000000
0.000000
0.000000
0.000000
0.000000
0.000000
0.000000
0.000000
0.000000
0.000000
0.000000
0.000000
0.000000
0.000000
0.000000
0.000000
0.000000
0.000000
0.000000
0.000000
0.000000
0.000000
0.000000
0.000000
0.000000
0.000000
0.000000
0.000000
0.000000
0.000000
0.000000
0.000000
0.000000
0.000000
0.000000
0.000000
0.000000
0.000000
0.000000
0.000000
0.000000
0.000000
0.000000
0.000000
0.000000
0.000000
0.000000
0.000000
0.000000
0.000000
0.000000
0.000000
0.000000
0.000000
0.000000
0.000000
0.000000
0.000000
0.000000
0.000000
0.000000
0.000000
</DataArray>
<DataArray NumberOfComponents='1' type='Float32' Name='pressure' format='ascii'>
0.000000
0.000000
0.000000
0.000000
0.000000
0.000000
0.000000
0.000000
0.000000
0.000000
0.000000
0.000000
0.000000
0.000000
0.000000
0.000000
0.000000
0.000000
0.000000
0.000000
0.000000
0.000000
0.000000
0.000000
0.000000
0.000000
0.000000
0.000000
0.000000
0.000000
0.000000
0.000000
0.000000
0.000000
0.000000
0.000000
0.000000
0.000000
0.000000
0.000000
0.000000
0.000000
0.000000
0.000000
0.000000
0.000000
0.000000
0.000000
0.000000
0.000000
0.000000
0.000000
0.000000
0.000000
0.000000
0.000000
0.000000
0.000000
0.000000
34.127327
1459.613281
983.951416
0.000000
0.000000
0.000000
0.000000
0.000000
0.000000
0.000000
0.000000
0.000000
0.000000
0.000000
0.000000
0.000000
0.000000
0.000000
0.000000
0.000000
0.000000
0.000000
0.000000
0.000000
0.000000
0.000000
0.000000
0.000000
0.000000
291.846558
0.000000
0.000000
0.000000
0.000000
0.000000
0.000000
0.000000
0.000000
0.000000
0.000000
0.000000
0.000000
0.000000
0.000000
0.000000
0.000000
0.000000
0.000000
0.000000
0.000000
0.000000
0.000000
0.000000
0.000000
0.000000
0.000000
0.000000
0.000000
1606.762329
0.000000
385.183197
0.000000
1292.169434
0.000000
669.547180
1044.276855
0.000000
0.000000
0.000000
0.000000
947.499512
291.096069
0.000000
0.000000
43.670330
0.000000
870.581909
0.000000
0.000000
1051.652710
77.970642
817.702942
2395.895996
5134.711914
0.000000
2145.068359
1351.216553
0.000000
0.000000
297.837341
0.000000
0.000000
0.000000
0.000000
0.000000
0.000000
136.997665
0.000000
0.000000
0.000000
0.000000
0.000000
0.000000
1770.186768
665.801880
0.000000
0.000000
0.000000
0.000000
1021.411560
1453.603760
2051.261963
0.000000
0.000000
0.000000
0.000000
0.000000
0.000000
0.000000
1027.338989
0.000000
0.000000
0.000000
0.000000
0.000000
0.000000
0.000000
0.000000
0.000000
2556.162109
0.000000
0.000000
630.577332
0.000000
1620.442749
1972.576904
0.000000
550.070129
1957.046387
3158.414551
852.675537
2383.773682
212.772949
0.000000
0.000000
1518.743408
0.000000
0.000000
0.000000
0.000000
0.000000
1101.021606
481.124298
1201.109619
1695.895508
565.516663
743.342590
1094.987915
0.000000
0.000000
1638.299927
1070.147949
803.134827
348.022949
3335.219727
4656.740723
1828.966675
1368.915894
1392.768921
715.720459
0.000000
670.722595
5648.691895
0.000000
0.000000
0.000000
0.000000
1791.724976
557.968933
0.000000
482.384888
1198.559814
0.000000
892.059082
0.000000
1614.803833
0.000000
1800.237305
1287.348389
2885.255859
922.677917
2291.035889
2763.502441
0.000000
2808.028320
1767.404785
0.000000
0.000000
0.000000
0.000000
0.000000
0.000000
415.119751
0.000000
0.000000
556.055176
0.000000
2041.932495
0.000000
0.000000
1346.951416
582.601501
49.673252
2595.155029
1460.727539
1133.771362
0.000000
360.774139
657.226196
0.000000
0.000000
0.000000
0.000000
0.000000
0.000000
0.000000
4616.518555
0.000000
0.000000
0.000000
2666.772705
0.000000
0.000000
602.692444
0.000000
0.000000
2326.620605
0.000000
3910.577148
767.212402
3621.935547
0.000000
0.000000
2110.095215
1096.173950
0.000000
0.000000
858.491272
0.000000
0.000000
0.000000
0.000000
0.000000
0.000000
0.000000
0.000000
0.000000
0.000000
0.000000
0.000000
0.000000
0.000000
0.000000
0.000000
3189.694580
2183.061035
0.000000
0.000000
0.000000
0.000000
0.000000
1854.261963
1150.752075
0.000000
0.000000
0.000000
0.000000
0.000000
0.000000
0.000000
0.000000
0.000000
0.000000
958.986938
0.000000
0.000000
0.000000
0.000000
1989.443848
0.000000
1177.508789
0.000000
2114.345947
0.000000
0.000000
1768.462158
434.692230
0.000000
0.000000
1372.401367
663.385559
0.000000
0.000000
594.752808
725.430115
0.000000
0.000000
956.020020
101.793304
0.000000
0.000000
1450.594971
407.199860
0.000000
0.000000
3231.163330
2723.997070
0.000000
0.000000
2575.802734
1979.049072
0.000000
0.000000
3188.896240
966.866760
0.000000
0.000000
1711.888550
0.000000
0.000000
0.000000
4016.585449
1094.658936
0.000000
0.000000
3558.771240
1796.295044
0.000000
0.000000
3066.019287
0.000000
0.000000
0.000000
5.553822
0.000000
0.000000
0.000000
296.459167
0.000000
0.000000
0.000000
2851.860107
0.000000
0.000000
0.000000
4268.255371
2808.415283
0.000000
0.000000
3027.751953
3892.336426
0.000000
0.000000
1620.028931
1258.142822
0.000000
0.000000
2915.791504
2339.266357
0.000000
0.000000
2276.259033
1984.393799
0.000000
0.000000
304.807831
0.000000
0.000000
0.000000
0.000000
0.000000
0.000000
0.000000
601.610779
0.000000
0.000000
0.000000
2084.898438
2227.288574
0.000000
0.000000
3496.208008
2869.201660
0.000000
0.000000
3504.853027
1189.660767
0.000000
0.000000
3891.650146
3065.386475
0.000000
0.000000
3790.173828
2872.976562
0.000000
0.000000
3456.081299
2452.891113
0.000000
0.000000
1943.356323
787.417603
0.000000
0.000000
923.889526
0.000000
0.000000
1952.055176
1027.510864
1972.207642
0.000000
0.000000
0.000000
2592.604980
0.000000
0.000000
4159.156250
0.000000
0.000000
0.000000
0.000000
0.000000
0.000000
0.000000
0.000000
0.000000
0.000000
0.000000
0.000000
0.000000
0.000000
0.000000
672.140137
713.430786
1349.326660
2869.343750
2455.853027
2275.232422
0.000000
0.000000
0.000000
2358.462158
840.616638
156.229919
2046.803955
707.413757
0.000000
0.000000
0.000000
0.000000
0.000000
0.000000
0.000000
0.000000
0.000000
0.000000
0.000000
0.000000
0.000000
0.000000
0.000000
0.000000
0.000000
0.000000
0.000000
0.000000
0.000000
0.000000
0.000000
0.000000
0.000000
0.000000
0.000000
0.000000
0.000000
0.000000
0.000000
0.000000
0.000000
0.000000
0.000000
0.000000
0.000000
0.000000
0.000000
0.000000
0.000000
0.000000
0.000000
0.000000
0.000000
0.000000
0.000000
0.000000
0.000000
0.000000
0.000000
0.000000
0.000000
0.000000
0.000000
0.000000
0.000000
0.000000
0.000000
0.000000
0.000000
0.000000
0.000000
0.000000
0.000000
0.000000
0.000000
0.000000
</DataArray>
</PointData>
<Cells>
<DataArray type='Int32' Name='connectivity' format='ascii'>
0
1
2
3
4
5
6
7
8
9
10
11
12
13
14
15
16
17
18
19
20
21
22
23
24
25
26
27
28
29
30
31
32
33
34
35
36
37
38
39
40
41
42
43
44
45
46
47
48
49
50
51
52
53
54
55
56
57
58
59
60
61
62
63
64
65
66
67
68
69
70
71
72
73
74
75
76
77
78
79
80
81
82
83
84
85
86
87
88
89
90
91
92
93
94
95
96
97
98
99
100
101
102
103
104
105
106
107
108
109
110
111
112
113
114
115
116
117
118
119
120
121
122
123
124
125
126
127
128
129
130
131
132
133
134
135
136
137
138
139
140
141
142
143
144
145
146
147
148
149
150
151
152
153
154
155
156
157
158
159
160
161
162
163
164
165
166
167
168
169
170
171
172
173
174
175
176
177
178
179
180
181
182
183
184
185
186
187
188
189
190
191
192
193
194
195
196
197
198
199
200
201
202
203
204
205
206
207
208
209
210
211
212
213
214
215
216
217
218
219
220
221
222
223
224
225
226
227
228
229
230
231
232
233
234
235
236
237
238
239
240
241
242
243
244
245
246
247
248
249
250
251
252
253
254
255
256
257
258
259
260
261
262
263
264
265
266
267
268
269
270
271
272
273
274
275
276
277
278
279
280
281
282
283
284
285
286
287
288
289
290
291
292
293
294
295
296
297
298
299
300
301
302
303
304
305
306
307
308
309
310
311
312
313
314
315
316
317
318
319
320
321
322
323
324
325
326