<?xml version='1.0' encoding='UTF-8'?>
<VTKFile xmlns='VTK' byte_order='LittleEndian' version='0.1' type='UnstructuredGrid'>
<UnstructuredGrid>
<Piece NumberOfCells='584' NumberOfPoints='584'>
<Points>
<DataArray NumberOfComponents='3' type='Float32' Name='Position' format='ascii'>
-0.075000 -0.075000 0.000000
-0.075000 -0.050000 0.000000
-0.075000 -0.025000 0.000000
-0.075000 0.000000 0.000000
-0.075000 0.025000 0.000000
-0.075000 0.050000 0.000000
-0.075000 0.075000 0.000000
-0.075000 0.100000 0.000000
-0.075000 0.125000 0.000000
-0.075000 0.150000 0.000000
-0.075000 0.175000 0.000000
-0.075000 0.200000 0.000000
-0.075000 0.225000 0.000000
-0.075000 0.250000 0.000000
-0.075000 0.275000 0.000000
-0.075000 0.300000 0.000000
-0.075000 0.325000 0.000000
-0.075000 0.350000 0.000000
-0.075000 0.375000 0.000000
-0.075000 0.400000 0.000000
-0.075000 0.425000 0.000000
-0.075000 0.450000 0.000000
-0.075000 0.475000 0.000000
-0.075000 0.500000 0.000000
-0.075000 0.525000 0.000000
-0.075000 0.550000 0.000000
-0.075000 0.575000 0.000000
-0.075000 0.600000 0.000000
-0.050000 -0.075000 0.000000
-0.050000 -0.050000 0.000000
-0.050000 -0.025000 0.000000
-0.050000 0.000000 0.000000
-0.050000 0.025000 0.000000
-0.050000 0.050000 0.000000
-0.050000 0.075000 0.000000
-0.050000 0.100000 0.000000
-0.050000 0.125000 0.000000
-0.050000 0.150000 0.000000
-0.050000 0.175000 0.000000
-0.050000 0.200000 0.000000
-0.050000 0.225000 0.000000
-0.050000 0.250000 0.000000
-0.050000 0.275000 0.000000
-0.050000 0.300000 0.000000
-0.050000 0.325000 0.000000
-0.050000 0.350000 0.000000
-0.050000 0.375000 0.000000
-0.050000 0.400000 0.000000
-0.050000 0.425000 0.000000
-0.050000 0.450000 0.000000
-0.050000 0.475000 0.000000
-0.050000 0.500000 0.000000
-0.050000 0.525000 0.000000
-0.050000 0.550000 0.000000
-0.050000 0.575000 0.000000
-0.050000 0.600000 0.000000
-0.025000 -0.075000 0.000000
-0.025000 -0.050000 0.000000
-0.025000 -0.025000 0.000000
-0.025000 0.000000 0.000000
-0.025000 0.025000 0.000000
-0.025000 0.050000 0.000000
-0.025000 0.075000 0.000000
-0.025000 0.100000 0.000000
-0.025000 0.125000 0.000000
-0.025000 0.150000 0.000000
-0.025000 0.175000 0.000000
-0.025000 0.200000 0.000000
-0.025000 0.225000 0.000000
-0.025000 0.250000 0.000000
-0.025000 0.275000 0.000000
-0.025000 0.300000 0.000000
-0.025000 0.325000 0.000000
-0.025000 0.350000 0.000000
-0.025000 0.375000 0.000000
-0.025000 0.400000 0.000000
-0.025000 0.425000 0.000000
-0.025000 0.450000 0.000000
-0.025000 0.475000 0.000000
-0.025000 0.500000 0.000000
-0.025000 0.525000 0.000000
-0.025000 0.550000 0.000000
-0.025000 0.575000 0.000000
-0.025000 0.600000 0.000000
0.000000 -0.075000 0.000000
0.000000 -0.050000 0.000000
0.000000 -0.025000 0.000000
0.000000 0.000000 0.000000
0.000000 0.025000 0.000000
0.000000 0.050000 0.000000
0.000000 0.075000 0.000000
0.000000 0.100000 0.000000
0.000000 0.125000 0.000000
0.000000 0.150000 0.000000
0.000000 0.175000 0.000000
0.000000 0.200000 0.000000
0.000000 0.225000 0.000000
0.000000 0.250000 0.000000
0.000000 0.275000 0.000000
0.000000 0.300000 0.000000
0.000000 0.325000 0.000000
0.000000 0.350000 0.000000
0.000000 0.375000 0.000000
0.000000 0.400000 0.000000
0.000000 0.425000 0.000000
0.000000 0.450000 0.000000
0.000000 0.475000 0.000000
0.000000 0.500000 0.000000
0.000000 0.525000 0.000000
0.000000 0.550000 0.000000
0.000000 0.575000 0.000000
0.000000 0.600000 0.000000
0.025000 -0.075000 0.000000
0.025000 -0.050000 0.000000
0.025000 -0.025000 0.000000
0.025000 0.000000 0.000000
0.268191 0.021059 0.000000
0.236898 0.023576 0.000000
0.216384 0.033497 0.000000
0.170794 0.022027 0.000000
0.357125 0.024950 0.000000
0.069105 0.022034 0.000000
0.451266 0.021049 0.000000
0.300448 0.023548 0.000000
0.197729 0.025173 0.000000
0.153004 0.059018 0.000000
0.259139 0.057486 0.000000
0.171075 0.047142 0.000000
0.149530 0.033966 0.000000
0.039172 0.020791 0.000000
0.020073 0.037895 0.000000
0.036666 0.055934 0.000000
0.093003 0.030856 0.000000
0.077476 0.046804 0.000000
0.074130 0.063112 0.000000
0.122023 0.021443 0.000000
0.050000 -0.075000 0.000000
0.050000 -0.050000 0.000000
0.050000 -0.025000 0.000000
0.050000 0.000000 0.000000
0.326897 0.026324 0.000000
0.535999 0.061445 0.000000
0.651512 0.049605 0.000000
0.616402 0.054826 0.000000
0.625591 0.040261 0.000000
0.672267 0.042394 0.000000
0.531313 0.025641 0.000000
0.755412 0.077463 0.000000
0.385871 0.021586 0.000000
0.384006 0.061705 0.000000
0.545793 0.096584 0.000000
0.455572 0.053327 0.000000
0.049560 0.048941 0.000000
0.430345 0.029483 0.000000
0.234753 0.046109 0.000000
0.277346 0.044309 0.000000
0.182925 0.063594 0.000000
0.290085 0.057794 0.000000
0.113107 0.042610 0.000000
0.127309 0.050637 0.000000
0.075000 -0.075000 0.000000
0.075000 -0.050000 0.000000
0.075000 -0.025000 0.000000
0.075000 0.000000 0.000000
0.338673 0.039436 0.000000
0.559991 0.058965 0.000000
0.571163 0.033197 0.000000
0.492751 0.019952 0.000000
0.856679 0.093042 0.000000
0.848623 0.024559 0.000000
0.862407 0.042920 0.000000
0.643196 0.093434 0.000000
0.794368 0.061465 0.000000
0.775732 0.023354 0.000000
0.629447 0.021810 0.000000
0.488625 0.044926 0.000000
0.432000 0.066938 0.000000
0.353987 0.063644 0.000000
0.370806 0.046504 0.000000
0.318213 0.073753 0.000000
0.303448 0.050933 0.000000
0.505137 0.052152 0.000000
0.422441 0.080906 0.000000
0.206501 0.060798 0.000000
0.100000 -0.075000 0.000000
0.100000 -0.050000 0.000000
0.100000 -0.025000 0.000000
0.100000 0.000000 0.000000
0.663594 0.021087 0.000000
0.589835 0.025827 0.000000
0.796258 0.034221 0.000000
0.926206 0.023911 0.000000
0.421647 0.047442 0.000000
0.903296 0.029748 0.000000
0.930180 0.085864 0.000000
0.878077 0.134537 0.000000
0.882277 0.022771 0.000000
0.894010 0.051044 0.000000
0.690809 0.028133 0.000000
0.707467 0.044036 0.000000
0.815825 0.058971 0.000000
0.816881 0.022534 0.000000
0.703691 0.081178 0.000000
0.405095 0.030619 0.000000
0.740528 0.022029 0.000000
0.820396 0.078372 0.000000
0.592559 0.046159 0.000000
0.530066 0.041546 0.000000
0.125000 -0.075000 0.000000
0.125000 -0.050000 0.000000
0.125000 -0.025000 0.000000
0.125000 0.000000 0.000000
0.929178 0.057091 0.000000
0.904568 0.097334 0.000000
1.002263 0.162568 0.000000
0.963042 0.024149 0.000000
0.974676 0.192259 0.000000
0.730162 0.054777 0.000000
0.855685 0.181497 0.000000
0.928068 0.176085 0.000000
0.927850 0.131675 0.000000
0.894675 0.116305 0.000000
0.955896 0.128224 0.000000
0.871222 0.199987 0.000000
0.781193 0.100198 0.000000
0.759316 0.059269 0.000000
0.688100 0.071660 0.000000
0.763724 0.038479 0.000000
0.894837 0.148456 0.000000
0.579820 0.095701 0.000000
0.822755 0.126866 0.000000
0.665149 0.073108 0.000000
0.150000 -0.075000 0.000000
0.150000 -0.050000 0.000000
0.150000 -0.025000 0.000000
0.150000 0.000000 0.000000
0.826300 0.156513 0.000000
1.002400 0.087936 0.000000
0.979963 0.305646 0.000000
0.790741 0.174197 0.000000
0.993497 0.065591 0.000000
0.778036 0.212150 0.000000
0.976309 0.130680 0.000000
0.794694 0.108533 0.000000
1.001546 0.135035 0.000000
0.950353 0.185159 0.000000
0.972461 0.044157 0.000000
0.911088 0.073072 0.000000
0.942815 0.037270 0.000000
0.956752 0.062274 0.000000
0.924601 0.113810 0.000000
0.872810 0.110602 0.000000
0.834836 0.040468 0.000000
0.886462 0.074158 0.000000
0.868133 0.062515 0.000000
0.716547 0.027251 0.000000
0.175000 -0.075000 0.000000
0.175000 -0.050000 0.000000
0.175000 -0.025000 0.000000
0.175000 0.000000 0.000000
0.466191 0.060789 0.000000
0.998807 0.185999 0.000000
0.992454 0.228161 0.000000
1.001222 0.212509 0.000000
0.974197 0.171011 0.000000
0.832861 0.214217 0.000000
0.994305 0.021823 0.000000
0.885018 0.217336 0.000000
0.810813 0.174247 0.000000
1.002275 0.043095 0.000000
0.926454 0.234287 0.000000
0.950388 0.208287 0.000000
0.841719 0.102758 0.000000
0.960181 0.155052 0.000000
0.963006 0.105237 0.000000
0.834573 0.174683 0.000000
0.993742 0.114984 0.000000
0.907141 0.165723 0.000000
0.840204 0.124306 0.000000
0.900813 0.184843 0.000000
0.200000 -0.075000 0.000000
0.200000 -0.050000 0.000000
0.200000 -0.025000 0.000000
0.200000 0.000000 0.000000
0.800432 0.608644 0.000000
0.793033 0.218865 0.000000
0.853448 0.281085 0.000000
0.991431 0.251287 0.000000
0.862029 0.257535 0.000000
0.890148 0.254308 0.000000
0.948286 0.316692 0.000000
0.975450 0.319992 0.000000
0.896378 0.236955 0.000000
0.736527 0.097000 0.000000
0.996574 0.264116 0.000000
0.979902 0.084013 0.000000
0.704837 0.117823 0.000000
0.803207 0.140586 0.000000
0.901207 0.206413 0.000000
0.847683 0.202760 0.000000
0.944317 0.238164 0.000000
0.857913 0.146863 0.000000
0.935089 0.152249 0.000000
0.953573 0.085824 0.000000
0.225000 -0.075000 0.000000
0.225000 -0.050000 0.000000
0.225000 -0.025000 0.000000
0.225000 0.000000 0.000000
0.872090 0.280366 0.000000
0.950233 1.273663 0.000000
0.931183 0.261593 0.000000
0.679528 0.096609 0.000000
0.512748 0.086447 0.000000
0.707763 0.138505 0.000000
0.899550 0.281713 0.000000
0.999662 0.306922 0.000000
0.940482 0.273432 0.000000
0.822784 0.240957 0.000000
0.994418 0.288412 0.000000
0.758365 0.196477 0.000000
0.570055 0.070798 0.000000
0.839897 0.074537 0.000000
0.815946 0.223411 0.000000
0.862094 0.239110 0.000000
0.784493 0.078866 0.000000
0.761027 0.139386 0.000000
0.782593 0.132327 0.000000
0.754507 0.116823 0.000000
0.250000 -0.075000 0.000000
0.250000 -0.050000 0.000000
0.250000 -0.025000 0.000000
0.250000 0.000000 0.000000
0.951923 0.934919 0.000000
0.772153 0.861291 0.000000
0.759666 0.255463 0.000000
0.852783 0.312465 0.000000
0.616212 0.994067 0.000000
0.881636 0.407462 0.000000
0.643778 0.802835 0.000000
0.733275 0.618492 0.000000
0.571995 0.122456 0.000000
0.913744 0.276497 0.000000
0.660683 0.092787 0.000000
0.745289 0.144702 0.000000
0.835227 0.250886 0.000000
0.728145 0.081524 0.000000
0.782497 0.162161 0.000000
0.871832 0.162690 0.000000
0.603159 0.122052 0.000000
0.931028 0.207540 0.000000
0.718873 0.121373 0.000000
0.966335 0.232758 0.000000
0.275000 -0.075000 0.000000
0.275000 -0.050000 0.000000
0.275000 -0.025000 0.000000
0.275000 0.000000 0.000000
0.300000 -0.075000 0.000000
0.300000 -0.050000 0.000000
0.300000 -0.025000 0.000000
0.300000 0.000000 0.000000
0.325000 -0.075000 0.000000
0.325000 -0.050000 0.000000
0.325000 -0.025000 0.000000
0.325000 0.000000 0.000000
0.350000 -0.075000 0.000000
0.350000 -0.050000 0.000000
0.350000 -0.025000 0.000000
0.350000 0.000000 0.000000
0.375000 -0.075000 0.000000
0.375000 -0.050000 0.000000
0.375000 -0.025000 0.000000
0.375000 0.000000 0.000000
0.400000 -0.075000 0.000000
0.400000 -0.050000 0.000000
0.400000 -0.025000 0.000000
0.400000 0.000000 0.000000
0.425000 -0.075000 0.000000
0.425000 -0.050000 0.000000
0.425000 -0.025000 0.000000
0.425000 0.000000 0.000000
0.450000 -0.075000 0.000000
0.450000 -0.050000 0.000000
0.450000 -0.025000 0.000000
0.450000 0.000000 0.000000
0.475000 -0.075000 0.000000
0.475000 -0.050000 0.000000
0.475000 -0.025000 0.000000
0.475000 0.000000 0.000000
0.500000 -0.075000 0.000000
0.500000 -0.050000 0.000000
0.500000 -0.025000 0.000000
0.500000 0.000000 0.000000
0.525000 -0.075000 0.000000
0.525000 -0.050000 0.000000
0.525000 -0.025000 0.000000
0.525000 0.000000 0.000000
0.550000 -0.075000 0.000000
0.550000 -0.050000 0.000000
0.550000 -0.025000 0.000000
0.550000 0.000000 0.000000
0.575000 -0.075000 0.000000
0.575000 -0.050000 0.000000
0.575000 -0.025000 0.000000
0.575000 0.000000 0.000000
0.600000 -0.075000 0.000000
0.600000 -0.050000 0.000000
0.600000 -0.025000 0.000000
0.600000 0.000000 0.000000
0.625000 -0.075000 0.000000
0.625000 -0.050000 0.000000
0.625000 -0.025000 0.000000
0.625000 0.000000 0.000000
0.650000 -0.075000 0.000000
0.650000 -0.050000 0.000000
0.650000 -0.025000 0.000000
0.650000 0.000000 0.000000
0.675000 -0.075000 0.000000
0.675000 -0.050000 0.000000
0.675000 -0.025000 0.000000
0.675000 0.000000 0.000000
0.700000 -0.075000 0.000000
0.700000 -0.050000 0.000000
0.700000 -0.025000 0.000000
0.700000 0.000000 0.000000
0.725000 -0.075000 0.000000
0.725000 -0.050000 0.000000
0.725000 -0.025000 0.000000
0.725000 0.000000 0.000000
0.750000 -0.075000 0.000000
0.750000 -0.050000 0.000000
0.750000 -0.025000 0.000000
0.750000 0.000000 0.000000
0.775000 -0.075000 0.000000
0.775000 -0.050000 0.000000
0.775000 -0.025000 0.000000
0.775000 0.000000 0.000000
0.800000 -0.075000 0.000000
0.800000 -0.050000 0.000000
0.800000 -0.025000 0.000000
0.800000 0.000000 0.000000
0.825000 -0.075000 0.000000
0.825000 -0.050000 0.000000
0.825000 -0.025000 0.000000
0.825000 0.000000 0.000000
0.850000 -0.075000 0.000000
0.850000 -0.050000 0.000000
0.850000 -0.025000 0.000000
0.850000 0.000000 0.000000
0.875000 -0.075000 0.000000
0.875000 -0.050000 0.000000
0.875000 -0.025000 0.000000
0.875000 0.000000 0.000000
0.900000 -0.075000 0.000000
0.900000 -0.050000 0.000000
0.900000 -0.025000 0.000000
0.900000 0.000000 0.000000
0.925000 -0.075000 0.000000
0.925000 -0.050000 0.000000
0.925000 -0.025000 0.000000
0.925000 0.000000 0.000000
0.950000 -0.075000 0.000000
0.950000 -0.050000 0.000000
0.950000 -0.025000 0.000000
0.950000 0.000000 0.000000
0.975000 -0.075000 0.000000
0.975000 -0.050000 0.000000
0.975000 -0.025000 0.000000
0.975000 0.000000 0.000000
1.000000 -0.075000 0.000000
1.000000 -0.050000 0.000000
1.000000 -0.025000 0.000000
1.000000 0.000000 0.000000
1.025000 -0.075000 0.000000
1.025000 -0.050000 0.000000
1.025000 -0.025000 0.000000
1.025000 0.000000 0.000000
1.025000 0.025000 0.000000
1.025000 0.050000 0.000000
1.025000 0.075000 0.000000
1.025000 0.100000 0.000000
1.025000 0.125000 0.000000
1.025000 0.150000 0.000000
1.025000 0.175000 0.000000
1.025000 0.200000 0.000000
1.025000 0.225000 0.000000
1.025000 0.250000 0.000000
1.025000 0.275000 0.000000
1.025000 0.300000 0.000000
1.025000 0.325000 0.000000
1.025000 0.350000 0.000000
1.025000 0.375000 0.000000
1.025000 0.400000 0.000000
1.025000 0.425000 0.000000
1.025000 0.450000 0.000000
1.025000 0.475000 0.000000
1.025000 0.500000 0.000000
1.025000 0.525000 0.000000
1.025000 0.550000 0.000000
1.025000 0.575000 0.000000
1.025000 0.600000 0.000000
1.050000 -0.075000 0.000000
1.050000 -0.050000 0.000000
1.050000 -0.025000 0.000000
1.050000 0.000000 0.000000
1.050000 0.025000 0.000000
1.050000 0.050000 0.000000
1.050000 0.075000 0.000000
1.050000 0.100000 0.000000
1.050000 0.125000 0.000000
1.050000 0.150000 0.000000
1.050000 0.175000 0.000000
1.050000 0.200000 0.000000
1.050000 0.225000 0.000000
1.050000 0.250000 0.000000
1.050000 0.275000 0.000000
1.050000 0.300000 0.000000
1.050000 0.325000 0.000000
1.050000 0.350000 0.000000
1.050000 0.375000 0.000000
1.050000 0.400000 0.000000
1.050000 0.425000 0.000000
1.050000 0.450000 0.000000
1.050000 0.475000 0.000000
1.050000 0.500000 0.000000
1.050000 0.525000 0.000000
1.050000 0.550000 0.000000
1.050000 0.575000 0.000000
1.050000 0.600000 0.000000
1.075000 -0.075000 0.000000
1.075000 -0.050000 0.000000
1.075000 -0.025000 0.000000
1.075000 0.000000 0.000000
1.075000 0.025000 0.000000
1.075000 0.050000 0.000000
1.075000 0.075000 0.000000
1.075000 0.100000 0.000000
1.075000 0.125000 0.000000
1.075000 0.150000 0.000000
1.075000 0.175000 0.000000
1.075000 0.200000 0.000000
1.075000 0.225000 0.000000
1.075000 0.250000 0.000000
1.075000 0.275000 0.000000
1.075000 0.300000 0.000000
1.075000 0.325000 0.000000
1.075000 0.350000 0.000000
1.075000 0.375000 0.000000
1.075000 0.400000 0.000000
1.075000 0.425000 0.000000
1.075000 0.450000 0.000000
1.075000 0.475000 0.000000
1.075000 0.500000 0.000000
1.075000 0.525000 0.000000
1.075000 0.550000 0.000000
1.075000 0.575000 0.000000
1.075000 0.600000 0.000000
1.100000 -0.075000 0.000000
1.100000 -0.050000 0.000000
1.100000 -0.025000 0.000000
1.100000 0.000000 0.000000
1.100000 0.025000 0.000000
1.100000 0.050000 0.000000
1.100000 0.075000 0.000000
1.100000 0.100000 0.000000
1.100000 0.125000 0.000000
1.100000 0.150000 0.000000
1.100000 0.175000 0.000000
1.100000 0.200000 0.000000
1.100000 0.225000 0.000000
1.100000 0.250000 0.000000
1.100000 0.275000 0.000000
1.100000 0.300000 0.000000
1.100000 0.325000 0.000000
1.100000 0.350000 0.000000
1.100000 0.375000 0.000000
1.100000 0.400000 0.000000
1.100000 0.425000 0.000000
1.100000 0.450000 0.000000
1.100000 0.475000 0.000000
1.100000 0.500000 0.000000
1.100000 0.525000 0.000000
1.100000 0.550000 0.000000
1.100000 0.575000 0.000000
1.100000 0.600000 0.000000
</DataArray>
</Points>
<PointData>
<DataArray NumberOfComponents='1' type='Int32' Name='ParticleType' format='ascii'>
3
3
3
3
3
3
3
3
3
3
3
3
3
3
3
3
3
3
3
3
3
3
3
3
3
3
2
2
3
3
3
3
3
3
3
3
3
3
3
3
3
3
3
3
3
3
3
3
3
3
3
3
3
3
2
2
3
3
2
2
2
2
2
2
2
2
2
2
2
2
2
2
2
2
2
2
2
2
2
2
2
2
2
2
3
3
2
2
2
2
2
2
2
2
2
2
2
2
2
2
2
2
2
2
2
2
2
2
2
2
2
2
3
3
2
2
0
0
0
0
0
0
0
0
0
0
0
0
0
0
0
0
0
0
0
0
3
3
2
2
0
0
0
0
0
0
0
0
0
0
0
0
0
0
0
0
0
0
0
0
3
3
2
2
0
0
0
0
0
0
0
0
0
0
0
0
0
0
0
0
0
0
0
0
3
3
2
2
0
0
0
0
0
0
0
0
0
0
0
0
0
0
0
0
0
0
0
0
3
3
2
2
0
0
0
0
0
0
0
0
0
0
0
0
0
0
0
0
0
0
0
0
3
3
2
2
0
0
0
0
0
0
0
0
0
0
0
0
0
0
0
0
0
0
0
0
3
3
2
2
0
0
0
0
0
0
0
0
0
0
0
0
0
0
0
0
0
0
0
0
3
3
2
2
0
0
0
0
0
0
0
0
0
0
0
0
0
0
0
0
0
0
0
0
3
3
2
2
0
0
0
0
0
0
0
0
0
0
0
0
0
0
0
0
0
0
0
0
3
3
2
2
0
0
0
0
0
0
0
0
0
0
0
0
0
0
0
0
0
0
0
0
3
3
2
2
3
3
2
2
3
3
2
2
3
3
2
2
3
3
2
2
3
3
2
2
3
3
2
2
3
3
2
2
3
3
2
2
3
3
2
2
3
3
2
2
3
3
2
2
3
3
2
2
3
3
2
2
3
3
2
2
3
3
2
2
3
3
2
2
3
3
2
2
3
3
2
2
3
3
2
2
3
3
2
2
3
3
2
2
3
3
2
2
3
3
2
2
3
3
2
2
3
3
2
2
3
3
2
2
3
3
2
2
3
3
2
2
3
3
2
2
3
3
2
2
2
2
2
2
2
2
2
2
2
2
2
2
2
2
2
2
2
2
2
2
2
2
2
2
3
3
2
2
2
2
2
2
2
2
2
2
2
2
2
2
2
2
2
2
2
2
2
2
2
2
2
2
3
3
3
3
3
3
3
3
3
3
3
3
3
3
3
3
3
3
3
3
3
3
3
3
3
3
2
2
3
3
3
3
3
3
3
3
3
3
3
3
3
3
3
3
3
3
3
3
3
3
3
3
3
3
2
2
</DataArray>
<DataArray NumberOfComponents='1' type='Float32' Name='Velocity' format='ascii'>
0.000000
0.000000
0.000000
0.000000
0.000000
0.000000
0.000000
0.000000
0.000000
0.000000
0.000000
0.000000
0.000000
0.000000
0.000000
0.000000
0.000000
0.000000
0.000000
0.000000
0.000000
0.000000
0.000000
0.000000
0.000000
0.000000
0.000000
0.000000
0.000000
0.000000
0.000000
0.000000
0.000000
0.000000
0.000000
0.000000
0.000000
0.000000
0.000000
0.000000
0.000000
0.000000
0.000000
0.000000
0.000000
0.000000
0.000000
0.000000
0.000000
0.000000
0.000000
0.000000
0.000000
0.000000
0.000000
0.000000
0.000000
0.000000
0.000000
0.000000
0.000000
0.000000
0.000000
0.000000
0.000000
0.000000
0.000000
0.000000
0.000000
0.000000
0.000000
0.000000
0.000000
0.000000
0.000000
0.000000
0.000000
0.000000
0.000000
0.000000
0.000000
0.000000
0.000000
0.000000
0.000000
0.000000
0.000000
0.000000
0.000000
0.000000
0.000000
0.000000
0.000000
0.000000
0.000000
0.000000
0.000000
0.000000
0.000000
0.000000
0.000000
0.000000
0.000000
0.000000
0.000000
0.000000
0.000000
0.000000
0.000000
0.000000
0.000000
0.000000
0.000000
0.000000
0.000000
0.000000
0.296978
0.137642
0.171628
0.359207
0.033510
0.176117
0.202269
0.434180
0.105397
0.190593
0.272128
0.231549
0.267890
0.284377
0.096677
0.086050
0.150497
0.157489
0.152021
0.071782
0.000000
0.000000
0.000000
0.000000
0.216807
0.891460
0.404448
0.871334
0.637481
0.265547
0.514526
0.204428
0.078575
0.189569
0.574703
0.231092
0.142859
0.724310
0.348166
0.268981
0.398196
0.291338
0.413464
0.225761
0.000000
0.000000
0.000000
0.000000
0.246777
0.867534
0.448061
0.445290
0.436007
0.065359
0.263688
1.694461
0.842904
0.553118
0.894706
1.153167
0.948942
0.467276
0.722967
0.605935
0.348883
0.471977
1.083988
0.144609
0.000000
0.000000
0.000000
0.000000
0.501314
0.563208
0.236854
0.367436
0.262556
0.268232
0.343322
1.099955
0.454055
0.063980
0.791694
0.838161
0.422129
0.179372
0.503676
0.499120
0.402593
1.738222
1.473848
0.636383
0.000000
0.000000
0.000000
0.000000
0.111085
0.371882
0.130292
0.058549
0.299667
0.562275
0.759561
0.539799
0.160968
0.084941
0.240876
0.721343
1.067323
0.052122
0.218047
0.541976
0.547768
0.691000
0.880324
0.802640
0.000000
0.000000
0.000000
0.000000
1.155612
0.141098
0.510003
1.218233
0.390641
2.151352
0.242616
0.977329
0.072103
0.605941
0.407035
0.269215
0.156522
0.204683
0.290807
0.993800
0.650734
0.169148
0.203695
0.478959
0.000000
0.000000
0.000000
0.000000
0.170593
0.241647
0.438136
0.332141
0.205171
1.562813
0.024853
0.393537
1.312803
0.060309
0.494324
0.379732
1.416681
0.148154
0.422889
0.932005
0.459340
0.318498
0.722351
0.775565
0.000000
0.000000
0.000000
0.000000
1.815959
1.527871
1.812960
0.564621
0.970092
1.104792
1.173867
0.544333
1.345497
0.754324
0.671311
0.478848
3.245332
1.519712
0.080000
1.451331
0.675496
0.503461
0.274178
0.272057
0.000000
0.000000
0.000000
0.000000
1.646171
0.751776
0.517398
2.034570
0.438006
2.944639
1.223016
1.644799
0.957182
1.411808
0.737472
1.959867
0.871641
0.544573
1.598712
1.496617
1.145349
2.153973
1.982680
1.365331
0.000000
0.000000
0.000000
0.000000
1.485286
1.500179
2.375911
2.199315
1.487403
2.109201
1.676464
1.918401
2.760116
0.960018
1.104367
2.236677
1.343342
0.838701
1.155127
1.591281
2.338461
0.874167
2.607312
0.505809
0.000000
0.000000
0.000000
0.000000
0.000000
0.000000
0.000000
0.000000
0.000000
0.000000
0.000000
0.000000
0.000000
0.000000
0.000000
0.000000
0.000000
0.000000
0.000000
0.000000
0.000000
0.000000
0.000000
0.000000
0.000000
0.000000
0.000000
0.000000
0.000000
0.000000
0.000000
0.000000
0.000000
0.000000
0.000000
0.000000
0.000000
0.000000
0.000000
0.000000
0.000000
0.000000
0.000000
0.000000
0.000000
0.000000
0.000000
0.000000
0.000000
0.000000
0.000000
0.000000
0.000000
0.000000
0.000000
0.000000
0.000000
0.000000
0.000000
0.000000
0.000000
0.000000
0.000000
0.000000
0.000000
0.000000
0.000000
0.000000
0.000000
0.000000
0.000000
0.000000
0.000000
0.000000
0.000000
0.000000
0.000000
0.000000
0.000000
0.000000
0.000000
0.000000
0.000000
0.000000
0.000000
0.000000
0.000000
0.000000
0.000000
0.000000
0.000000
0.000000
0.000000
0.000000
0.000000
0.000000
0.000000
0.000000
0.000000
0.000000
0.000000
0.000000
0.000000
0.000000
0.000000
0.000000
0.000000
0.000000
0.000000
0.000000
0.000000
0.000000
0.000000
0.000000
0.000000
0.000000
0.000000
0.000000
0.000000
0.000000
0.000000
0.000000
0.000000
0.000000
0.000000
0.000000
0.000000
0.000000
0.000000
0.000000
0.000000
0.000000
0.000000
0.000000
0.000000
0.000000
0.000000
0.000000
0.000000
0.000000
0.000000
0.000000
0.000000
0.000000
0.000000
0.000000
0.000000
0.000000
0.000000
0.000000
0.000000
0.000000
0.000000
0.000000
0.000000
0.000000
0.000000
0.000000
0.000000
0.000000
0.000000
0.000000
0.000000
0.000000
0.000000
0.000000
0.000000
0.000000
0.000000
0.000000
0.000000
0.000000
0.000000
0.000000
0.000000
0.000000
0.000000
0.000000
0.000000
0.000000
0.000000
0.000000
0.000000
0.000000
0.000000
0.000000
0.000000
0.000000
0.000000
0.000000
0.000000
0.000000
0.000000
0.000000
0.000000
0.000000
0.000000
0.000000
0.000000
0.000000
0.000000
0.000000
0.000000
0.000000
0.000000
0.000000
0.000000
0.000000
0.000000
0.000000
0.000000
0.000000
0.000000
0.000000
0.000000
0.000000
0.000000
0.000000
0.000000
0.000000
0.000000
0.000000
0.000000
0.000000
0.000000
0.000000
0.000000
0.000000
0.000000
0.000000
0.000000
0.000000
</DataArray>
<DataArray NumberOfComponents='1' type='Float32' Name='pressure' format='ascii'>
0.000000
0.000000
0.000000
0.000000
0.000000
0.000000
0.000000
0.000000
0.000000
0.000000
0.000000
0.000000
0.000000
0.000000
0.000000
0.000000
0.000000
0.000000
0.000000
0.000000
0.000000
0.000000
0.000000
0.000000
0.000000
0.000000
0.000000
0.000000
0.000000
0.000000
0.000000
0.000000
0.000000
0.000000
0.000000
0.000000
0.000000
0.000000
0.000000
0.000000
0.000000
0.000000
0.000000
0.000000
0.000000
0.000000
0.000000
0.000000
0.000000
0.000000
0.000000
0.000000
0.000000
0.000000
0.000000
0.000000
0.000000
0.000000
619.707886
613.426270
1678.771606
1483.497192
0.000000
0.000000
0.000000
0.000000
0.000000
0.000000
0.000000
0.000000
0.000000
0.000000
0.000000
0.000000
0.000000
0.000000
0.000000
0.000000
0.000000
0.000000
0.000000
0.000000
0.000000
0.000000
0.000000
0.000000
757.837830
0.000000
331.137604
0.000000
0.000000
0.000000
0.000000
0.000000
0.000000
0.000000
0.000000
0.000000
0.000000
0.000000
0.000000
0.000000
0.000000
0.000000
0.000000
0.000000
0.000000
0.000000
0.000000
0.000000
0.000000
0.000000
0.000000
0.000000
1880.624634
0.000000
0.000000
1045.358154
410.977173
816.402710
665.665833
963.815979
0.000000
0.000000
0.000000
0.000000
0.000000
104.185646
1247.432739
979.528931
0.000000
0.000000
58.986034
0.000000
0.000000
0.000000
0.000000
0.000000
3084.681152
2011.425659
287.790894
0.000000
0.000000
0.000000
1186.745483
639.753601
0.000000
1983.708740
1091.197998
0.000000
0.000000
0.000000
295.294739
1773.287842
0.000000
721.694763
0.000000
0.000000
0.000000
0.000000
0.000000
0.000000
2146.791504
1463.668945
0.000000
0.000000
0.000000
0.000000
5507.187012
4241.910645
4717.377441
0.000000
7398.762207
5829.152344
2234.604736
0.000000
0.000000
0.000000
0.000000
0.000000
738.057617
0.000000
0.000000
0.000000
0.000000
0.000000
248.771362
0.000000
2851.516357
0.000000
2286.865967
3628.910400
0.000000
4304.762695
3051.477295
4908.430664
3785.087891
1865.513916
2999.011475
1500.595703
4660.464355
3187.927002
0.000000
0.000000
0.000000
2130.688721
0.000000
205.124161
0.000000
0.000000
1751.362915
181.974457
1778.589722
3114.469482
543.074097
4160.013184
344.495819
0.000000
3106.702148
3044.591797
2560.812012
2683.084961
3038.193359
989.466125
4171.711426
4460.175293
4040.053711
3990.057617
3532.892822
0.000000
0.000000
1293.086182
0.000000
0.000000
510.143372
0.000000
3146.376709
3198.416504
0.000000
0.000000
3470.699951
0.000000
2179.145752
0.000000
1513.156982
2263.808594
1417.161011
4894.866699
4224.229492
2271.185791
1084.023560
1494.992310
4427.327637
1884.877319
2852.187744
2817.873535
0.000000
0.000000
2194.227783
2304.631348
0.000000
250.437149
860.824829
1613.973511
2725.209229
1152.171387
3760.356201
4085.020752
0.000000
4083.667480
1151.734619
1302.265503
4715.645996
634.388916
2438.223877
2914.083984
1901.683594
3146.487549
3413.594238
1472.748657
0.000000
0.000000
1241.637085
1034.773438
0.000000
0.000000
0.000000
2884.229248
2390.203613
1971.983032
0.000000
0.000000
1743.408691
0.000000
2788.850830
3567.248047
0.000000
1453.592285
783.975342
1707.392090
0.000000
462.756714
1263.980225
3286.812744
0.000000
0.000000
1339.356812
1105.803345
0.000000
0.000000
2767.177490
0.000000
0.000000
0.000000
0.000000
0.000000
0.000000
0.000000
0.000000
0.000000
0.000000
2276.432373
0.000000
0.000000
2743.977539
0.000000
1955.806396
0.000000
0.000000
0.000000
2290.354248
104.721046
0.000000
0.000000
0.000000
0.000000
0.000000
0.000000
0.000000
0.000000
0.000000
0.000000
0.000000
0.000000
0.000000
1694.346313
0.000000
541.836609
0.000000
1150.420654
2769.714600
0.000000
0.000000
0.000000
2720.418701
2401.028809
0.000000
0.000000
1585.135986
405.332153
0.000000
0.000000
311.211731
96.863686
0.000000
0.000000
562.180115
248.556473
0.000000
0.000000
1495.584595
1889.972412
0.000000
0.000000
922.562561
0.000000
0.000000
0.000000
0.000000
0.000000
0.000000
0.000000
1741.021851
0.000000
0.000000
0.000000
1197.605225
0.000000
0.000000
0.000000
1636.891602
0.000000
0.000000
0.000000
0.000000
0.000000
0.000000
0.000000
0.000000
0.000000
0.000000
0.000000
0.000000
0.000000
0.000000
0.000000
0.000000
0.000000
0.000000
0.000000
2665.660400
794.488708
0.000000
0.000000
3660.790771
2892.033447
0.000000
0.000000
3612.459473
2888.980957
0.000000
0.000000
1891.394897
1319.060303
0.000000
0.000000
3151.732666
2268.382080
0.000000
0.000000
4440.174316
4346.352051
0.000000
0.000000
4721.713379
5482.542969
0.000000
0.000000
4035.187256
2103.294189
0.000000
0.000000
4856.506348
4634.270996
0.000000
0.000000
4461.680664
4681.303223
0.000000
0.000000
4642.632812
3842.279541
0.000000
0.000000
3415.386475
3177.913574
0.000000
0.000000
3721.827881
3556.488037
0.000000
0.000000
3010.629639
1614.688110
0.000000
0.000000
3928.701904
2465.822510
0.000000
0.000000
4881.729492
4915.530762
0.000000
0.000000
3919.941162
3570.711182
2398.858154
3842.481934
3329.690674
1888.227295
2755.236084
3380.436523
3070.807129
1895.399658
0.000000
0.000000
0.000000
0.000000
0.000000
0.000000
0.000000
0.000000
0.000000
0.000000
0.000000
0.000000
0.000000
0.000000
0.000000
0.000000
0.000000
0.000000
3762.366699
3605.465576
3196.036377
4093.130371
3572.492920
3337.223389
3100.770996
3507.822021
2531.766602
1273.453735
368.051239
0.000000
0.000000
0.000000
0.000000
0.000000
0.000000
0.000000
0.000000
0.000000
0.000000
0.000000
0.000000
0.000000
0.000000
0.000000
0.000000
0.000000
0.000000
0.000000
0.000000
0.000000
0.000000
0.000000
0.000000
0.000000
0.000000
0.000000
0.000000
0.000000
0.000000
0.000000
0.000000
0.000000
0.000000
0.000000
0.000000
0.000000
0.000000
0.000000
0.000000
0.000000
0.000000
0.000000
0.000000
0.000000
0.000000
0.000000
0.000000
0.000000
0.000000
0.000000
0.000000
0.000000
0.000000
0.000000
0.000000
0.000000
0.000000
0.000000
0.000000
0.000000
0.000000
0.000000
0.000000
0.000000
0.000000
0.000000
0.000000
0.000000
0.000000
0.000000
</DataArray>
</PointData>
<Cells>
<DataArray type='Int32' Name='connectivity' format='ascii'>
0
1
2
3
4
5
6
7
8
9
10
11
12
13
14
15
16
17
18
19
20
21
22
23
24
25
26
27
28
29
30
31
32
33
34
35
36
37
38
39
40
41
42
43
44
45
46
47
48
49
50
51
52
53
54
55
56
57
58
59
60
61
62
63
64
65
66
67
68
69
70
71
72
73
74
75
76
77
78
79
80
81
82
83
84
85
86
87
88
89
90
91
92
93
94
95
96
97
98
99
100
101
102
103
104
105
106
107
108
109
110
111
112
113
114
115
116
117
118
119
120
121
122
123
124
125
126
127
128
129
130
131
132
133
134
135
136
137
138
139
140
141
142
143
144
145
146
147
148
149
150
151
152
153
154
155
156
157
158
159
160
161
162
163
164
165
166
167
168
169
170
171
172
173
174
175
176
177
178
179
180
181
182
183
184
185
186
187
188
189
190
191
192
193
194
195
196
197
198
199
200
201
202
203
204
205
206
207
208
209
210
211
212
213
214
215
216
217
218
219
220
221
222
223
224
225
226
227
228
229
230
231
232
233
234
235
236
237
238
239
240
241
242
243
244
245
246
247
248
249
250
251
252
253
254
255
256
257
258
259
260
261
262
263
264
265
266
267
268
269
270
271
272
273
274
275
276
277
278
279
280
281
282
283
284
285
286
287
288
289
290
291
292
293
294
295
296
297