<?xml version='1.0' encoding='UTF-8'?>
<VTKFile xmlns='VTK' byte_order='LittleEndian' version='0.1' type='UnstructuredGrid'>
<UnstructuredGrid>
<Piece NumberOfCells='584' NumberOfPoints='584'>
<Points>
<DataArray NumberOfComponents='3' type='Float32' Name='Position' format='ascii'>
-0.075000 -0.075000 0.000000
-0.075000 -0.050000 0.000000
-0.075000 -0.025000 0.000000
-0.075000 0.000000 0.000000
-0.075000 0.025000 0.000000
-0.075000 0.050000 0.000000
-0.075000 0.075000 0.000000
-0.075000 0.100000 0.000000
-0.075000 0.125000 0.000000
-0.075000 0.150000 0.000000
-0.075000 0.175000 0.000000
-0.075000 0.200000 0.000000
-0.075000 0.225000 0.000000
-0.075000 0.250000 0.000000
-0.075000 0.275000 0.000000
-0.075000 0.300000 0.000000
-0.075000 0.325000 0.000000
-0.075000 0.350000 0.000000
-0.075000 0.375000 0.000000
-0.075000 0.400000 0.000000
-0.075000 0.425000 0.000000
-0.075000 0.450000 0.000000
-0.075000 0.475000 0.000000
-0.075000 0.500000 0.000000
-0.075000 0.525000 0.000000
-0.075000 0.550000 0.000000
-0.075000 0.575000 0.000000
-0.075000 0.600000 0.000000
-0.050000 -0.075000 0.000000
-0.050000 -0.050000 0.000000
-0.050000 -0.025000 0.000000
-0.050000 0.000000 0.000000
-0.050000 0.025000 0.000000
-0.050000 0.050000 0.000000
-0.050000 0.075000 0.000000
-0.050000 0.100000 0.000000
-0.050000 0.125000 0.000000
-0.050000 0.150000 0.000000
-0.050000 0.175000 0.000000
-0.050000 0.200000 0.000000
-0.050000 0.225000 0.000000
-0.050000 0.250000 0.000000
-0.050000 0.275000 0.000000
-0.050000 0.300000 0.000000
-0.050000 0.325000 0.000000
-0.050000 0.350000 0.000000
-0.050000 0.375000 0.000000
-0.050000 0.400000 0.000000
-0.050000 0.425000 0.000000
-0.050000 0.450000 0.000000
-0.050000 0.475000 0.000000
-0.050000 0.500000 0.000000
-0.050000 0.525000 0.000000
-0.050000 0.550000 0.000000
-0.050000 0.575000 0.000000
-0.050000 0.600000 0.000000
-0.025000 -0.075000 0.000000
-0.025000 -0.050000 0.000000
-0.025000 -0.025000 0.000000
-0.025000 0.000000 0.000000
-0.025000 0.025000 0.000000
-0.025000 0.050000 0.000000
-0.025000 0.075000 0.000000
-0.025000 0.100000 0.000000
-0.025000 0.125000 0.000000
-0.025000 0.150000 0.000000
-0.025000 0.175000 0.000000
-0.025000 0.200000 0.000000
-0.025000 0.225000 0.000000
-0.025000 0.250000 0.000000
-0.025000 0.275000 0.000000
-0.025000 0.300000 0.000000
-0.025000 0.325000 0.000000
-0.025000 0.350000 0.000000
-0.025000 0.375000 0.000000
-0.025000 0.400000 0.000000
-0.025000 0.425000 0.000000
-0.025000 0.450000 0.000000
-0.025000 0.475000 0.000000
-0.025000 0.500000 0.000000
-0.025000 0.525000 0.000000
-0.025000 0.550000 0.000000
-0.025000 0.575000 0.000000
-0.025000 0.600000 0.000000
0.000000 -0.075000 0.000000
0.000000 -0.050000 0.000000
0.000000 -0.025000 0.000000
0.000000 0.000000 0.000000
0.000000 0.025000 0.000000
0.000000 0.050000 0.000000
0.000000 0.075000 0.000000
0.000000 0.100000 0.000000
0.000000 0.125000 0.000000
0.000000 0.150000 0.000000
0.000000 0.175000 0.000000
0.000000 0.200000 0.000000
0.000000 0.225000 0.000000
0.000000 0.250000 0.000000
0.000000 0.275000 0.000000
0.000000 0.300000 0.000000
0.000000 0.325000 0.000000
0.000000 0.350000 0.000000
0.000000 0.375000 0.000000
0.000000 0.400000 0.000000
0.000000 0.425000 0.000000
0.000000 0.450000 0.000000
0.000000 0.475000 0.000000
0.000000 0.500000 0.000000
0.000000 0.525000 0.000000
0.000000 0.550000 0.000000
0.000000 0.575000 0.000000
0.000000 0.600000 0.000000
0.025000 -0.075000 0.000000
0.025000 -0.050000 0.000000
0.025000 -0.025000 0.000000
0.025000 0.000000 0.000000
0.025669 0.024140 0.000000
0.025157 0.047390 0.000000
0.025444 0.071367 0.000000
0.025352 0.094625 0.000000
0.025660 0.118599 0.000000
0.025371 0.142136 0.000000
0.025463 0.166104 0.000000
0.025330 0.189878 0.000000
0.025337 0.214019 0.000000
0.025259 0.238061 0.000000
0.025250 0.262329 0.000000
0.025206 0.286704 0.000000
0.025178 0.311116 0.000000
0.025062 0.335745 0.000000
0.025073 0.360325 0.000000
0.025004 0.384952 0.000000
0.024788 0.409866 0.000000
0.025097 0.434421 0.000000
0.024550 0.459798 0.000000
0.024897 0.483563 0.000000
0.050000 -0.075000 0.000000
0.050000 -0.050000 0.000000
0.050000 -0.025000 0.000000
0.050000 0.000000 0.000000
0.053001 0.024889 0.000000
0.052610 0.047069 0.000000
0.052761 0.071130 0.000000
0.052302 0.094212 0.000000
0.052318 0.118178 0.000000
0.052049 0.141571 0.000000
0.051911 0.165753 0.000000
0.051630 0.189475 0.000000
0.051520 0.213696 0.000000
0.051256 0.237795 0.000000
0.051145 0.262139 0.000000
0.050927 0.286509 0.000000
0.050860 0.310876 0.000000
0.050698 0.335442 0.000000
0.050544 0.360176 0.000000
0.050551 0.384644 0.000000
0.050289 0.409807 0.000000
0.050220 0.434438 0.000000
0.050061 0.459354 0.000000
0.050011 0.483582 0.000000
0.075000 -0.075000 0.000000
0.075000 -0.050000 0.000000
0.075000 -0.025000 0.000000
0.075000 0.000000 0.000000
0.079780 0.024078 0.000000
0.079069 0.047333 0.000000
0.078983 0.071150 0.000000
0.078794 0.094308 0.000000
0.078534 0.118402 0.000000
0.078162 0.141758 0.000000
0.077947 0.165754 0.000000
0.077522 0.189513 0.000000
0.077240 0.213691 0.000000
0.076901 0.237741 0.000000
0.076633 0.262058 0.000000
0.076294 0.286430 0.000000
0.076070 0.310983 0.000000
0.075942 0.335415 0.000000
0.075696 0.360216 0.000000
0.075561 0.384761 0.000000
0.075495 0.409546 0.000000
0.075128 0.434277 0.000000
0.075066 0.459470 0.000000
0.075013 0.483596 0.000000
0.100000 -0.075000 0.000000
0.100000 -0.050000 0.000000
0.100000 -0.025000 0.000000
0.100000 0.000000 0.000000
0.106593 0.024414 0.000000
0.106268 0.046773 0.000000
0.105905 0.070894 0.000000
0.105373 0.093725 0.000000
0.105119 0.117533 0.000000
0.104519 0.140980 0.000000
0.104087 0.165071 0.000000
0.103623 0.188743 0.000000
0.103172 0.213063 0.000000
0.102740 0.237175 0.000000
0.102376 0.261552 0.000000
0.102051 0.285899 0.000000
0.101697 0.310540 0.000000
0.101386 0.335046 0.000000
0.101142 0.359748 0.000000
0.100826 0.384463 0.000000
0.100650 0.409368 0.000000
0.100533 0.434007 0.000000
0.100279 0.459213 0.000000
0.100044 0.483470 0.000000
0.125000 -0.075000 0.000000
0.125000 -0.050000 0.000000
0.125000 -0.025000 0.000000
0.125000 0.000000 0.000000
0.134335 0.023844 0.000000
0.133113 0.047059 0.000000
0.133042 0.070320 0.000000
0.132318 0.093637 0.000000
0.131714 0.117532 0.000000
0.131052 0.140720 0.000000
0.130412 0.164851 0.000000
0.129694 0.188544 0.000000
0.129147 0.212786 0.000000
0.128528 0.236892 0.000000
0.127994 0.261328 0.000000
0.127537 0.285719 0.000000
0.127139 0.310288 0.000000
0.126706 0.334859 0.000000
0.126382 0.359645 0.000000
0.126116 0.384268 0.000000
0.125780 0.409199 0.000000
0.125452 0.433880 0.000000
0.125326 0.459000 0.000000
0.125060 0.483315 0.000000
0.150000 -0.075000 0.000000
0.150000 -0.050000 0.000000
0.150000 -0.025000 0.000000
0.150000 0.000000 0.000000
0.161585 0.024065 0.000000
0.160548 0.046190 0.000000
0.159573 0.069962 0.000000
0.159043 0.092324 0.000000
0.158049 0.116239 0.000000
0.157205 0.139647 0.000000
0.156405 0.163604 0.000000
0.155525 0.187466 0.000000
0.154813 0.211844 0.000000
0.154106 0.235999 0.000000
0.153514 0.260540 0.000000
0.152943 0.285045 0.000000
0.152456 0.309683 0.000000
0.152031 0.334289 0.000000
0.151688 0.359155 0.000000
0.151251 0.383856 0.000000
0.151000 0.408737 0.000000
0.150743 0.433580 0.000000
0.150435 0.458747 0.000000
0.150072 0.483080 0.000000
0.175000 -0.075000 0.000000
0.175000 -0.050000 0.000000
0.175000 -0.025000 0.000000
0.175000 0.000000 0.000000
0.190149 0.023621 0.000000
0.188587 0.045839 0.000000
0.187884 0.069083 0.000000
0.186306 0.092353 0.000000
0.185274 0.115648 0.000000
0.183850 0.139191 0.000000
0.182763 0.163044 0.000000
0.181701 0.186957 0.000000
0.180756 0.211306 0.000000
0.179883 0.235553 0.000000
0.179153 0.260127 0.000000
0.178471 0.284639 0.000000
0.177878 0.309336 0.000000
0.177367 0.334077 0.000000
0.176907 0.358835 0.000000
0.176432 0.383579 0.000000
0.176197 0.408623 0.000000
0.175597 0.433314 0.000000
0.175463 0.458345 0.000000
0.175086 0.482837 0.000000
0.200000 -0.075000 0.000000
0.200000 -0.050000 0.000000
0.200000 -0.025000 0.000000
0.200000 0.000000 0.000000
0.219736 0.023618 0.000000
0.216406 0.044625 0.000000
0.214791 0.067136 0.000000
0.213224 0.089932 0.000000
0.211436 0.113373 0.000000
0.209998 0.137087 0.000000
0.208442 0.161309 0.000000
0.207280 0.185404 0.000000
0.206108 0.209954 0.000000
0.205207 0.234387 0.000000
0.204333 0.259110 0.000000
0.203656 0.283767 0.000000
0.203006 0.308577 0.000000
0.202489 0.333353 0.000000
0.201957 0.358170 0.000000
0.201582 0.383205 0.000000
0.201180 0.407897 0.000000
0.200766 0.432891 0.000000
0.200600 0.458220 0.000000
0.200111 0.482507 0.000000
0.225000 -0.075000 0.000000
0.225000 -0.050000 0.000000
0.225000 -0.025000 0.000000
0.225000 0.000000 0.000000
0.249989 0.023289 0.000000
0.248232 0.044311 0.000000
0.243966 0.066555 0.000000
0.241586 0.088896 0.000000
0.238633 0.112641 0.000000
0.236794 0.136134 0.000000
0.234737 0.160404 0.000000
0.233340 0.184621 0.000000
0.231924 0.209236 0.000000
0.230905 0.233793 0.000000
0.229903 0.258576 0.000000
0.229149 0.283314 0.000000
0.228397 0.308158 0.000000
0.227829 0.333037 0.000000
0.227277 0.357896 0.000000
0.226839 0.382810 0.000000
0.226265 0.407745 0.000000
0.226130 0.432745 0.000000
0.225486 0.457619 0.000000
0.225065 0.482174 0.000000
0.250000 -0.075000 0.000000
0.250000 -0.050000 0.000000
0.250000 -0.025000 0.000000
0.250000 0.000000 0.000000
0.286544 0.023068 0.000000
0.277953 0.035746 0.000000
0.272172 0.059553 0.000000
0.268247 0.083533 0.000000
0.264497 0.108365 0.000000
0.261955 0.132893 0.000000
0.259637 0.157766 0.000000
0.258025 0.182563 0.000000
0.256541 0.207497 0.000000
0.255449 0.232394 0.000000
0.254443 0.257357 0.000000
0.253655 0.282299 0.000000
0.252934 0.307270 0.000000
0.252350 0.332247 0.000000
0.251769 0.357221 0.000000
0.251351 0.382193 0.000000
0.250904 0.407194 0.000000
0.250521 0.432191 0.000000
0.250121 0.457146 0.000000
0.250008 0.482074 0.000000
0.275000 -0.075000 0.000000
0.275000 -0.050000 0.000000
0.275000 -0.025000 0.000000
0.275000 0.000000 0.000000
0.300000 -0.075000 0.000000
0.300000 -0.050000 0.000000
0.300000 -0.025000 0.000000
0.300000 0.000000 0.000000
0.325000 -0.075000 0.000000
0.325000 -0.050000 0.000000
0.325000 -0.025000 0.000000
0.325000 0.000000 0.000000
0.350000 -0.075000 0.000000
0.350000 -0.050000 0.000000
0.350000 -0.025000 0.000000
0.350000 0.000000 0.000000
0.375000 -0.075000 0.000000
0.375000 -0.050000 0.000000
0.375000 -0.025000 0.000000
0.375000 0.000000 0.000000
0.400000 -0.075000 0.000000
0.400000 -0.050000 0.000000
0.400000 -0.025000 0.000000
0.400000 0.000000 0.000000
0.425000 -0.075000 0.000000
0.425000 -0.050000 0.000000
0.425000 -0.025000 0.000000
0.425000 0.000000 0.000000
0.450000 -0.075000 0.000000
0.450000 -0.050000 0.000000
0.450000 -0.025000 0.000000
0.450000 0.000000 0.000000
0.475000 -0.075000 0.000000
0.475000 -0.050000 0.000000
0.475000 -0.025000 0.000000
0.475000 0.000000 0.000000
0.500000 -0.075000 0.000000
0.500000 -0.050000 0.000000
0.500000 -0.025000 0.000000
0.500000 0.000000 0.000000
0.525000 -0.075000 0.000000
0.525000 -0.050000 0.000000
0.525000 -0.025000 0.000000
0.525000 0.000000 0.000000
0.550000 -0.075000 0.000000
0.550000 -0.050000 0.000000
0.550000 -0.025000 0.000000
0.550000 0.000000 0.000000
0.575000 -0.075000 0.000000
0.575000 -0.050000 0.000000
0.575000 -0.025000 0.000000
0.575000 0.000000 0.000000
0.600000 -0.075000 0.000000
0.600000 -0.050000 0.000000
0.600000 -0.025000 0.000000
0.600000 0.000000 0.000000
0.625000 -0.075000 0.000000
0.625000 -0.050000 0.000000
0.625000 -0.025000 0.000000
0.625000 0.000000 0.000000
0.650000 -0.075000 0.000000
0.650000 -0.050000 0.000000
0.650000 -0.025000 0.000000
0.650000 0.000000 0.000000
0.675000 -0.075000 0.000000
0.675000 -0.050000 0.000000
0.675000 -0.025000 0.000000
0.675000 0.000000 0.000000
0.700000 -0.075000 0.000000
0.700000 -0.050000 0.000000
0.700000 -0.025000 0.000000
0.700000 0.000000 0.000000
0.725000 -0.075000 0.000000
0.725000 -0.050000 0.000000
0.725000 -0.025000 0.000000
0.725000 0.000000 0.000000
0.750000 -0.075000 0.000000
0.750000 -0.050000 0.000000
0.750000 -0.025000 0.000000
0.750000 0.000000 0.000000
0.775000 -0.075000 0.000000
0.775000 -0.050000 0.000000
0.775000 -0.025000 0.000000
0.775000 0.000000 0.000000
0.800000 -0.075000 0.000000
0.800000 -0.050000 0.000000
0.800000 -0.025000 0.000000
0.800000 0.000000 0.000000
0.825000 -0.075000 0.000000
0.825000 -0.050000 0.000000
0.825000 -0.025000 0.000000
0.825000 0.000000 0.000000
0.850000 -0.075000 0.000000
0.850000 -0.050000 0.000000
0.850000 -0.025000 0.000000
0.850000 0.000000 0.000000
0.875000 -0.075000 0.000000
0.875000 -0.050000 0.000000
0.875000 -0.025000 0.000000
0.875000 0.000000 0.000000
0.900000 -0.075000 0.000000
0.900000 -0.050000 0.000000
0.900000 -0.025000 0.000000
0.900000 0.000000 0.000000
0.925000 -0.075000 0.000000
0.925000 -0.050000 0.000000
0.925000 -0.025000 0.000000
0.925000 0.000000 0.000000
0.950000 -0.075000 0.000000
0.950000 -0.050000 0.000000
0.950000 -0.025000 0.000000
0.950000 0.000000 0.000000
0.975000 -0.075000 0.000000
0.975000 -0.050000 0.000000
0.975000 -0.025000 0.000000
0.975000 0.000000 0.000000
1.000000 -0.075000 0.000000
1.000000 -0.050000 0.000000
1.000000 -0.025000 0.000000
1.000000 0.000000 0.000000
1.025000 -0.075000 0.000000
1.025000 -0.050000 0.000000
1.025000 -0.025000 0.000000
1.025000 0.000000 0.000000
1.025000 0.025000 0.000000
1.025000 0.050000 0.000000
1.025000 0.075000 0.000000
1.025000 0.100000 0.000000
1.025000 0.125000 0.000000
1.025000 0.150000 0.000000
1.025000 0.175000 0.000000
1.025000 0.200000 0.000000
1.025000 0.225000 0.000000
1.025000 0.250000 0.000000
1.025000 0.275000 0.000000
1.025000 0.300000 0.000000
1.025000 0.325000 0.000000
1.025000 0.350000 0.000000
1.025000 0.375000 0.000000
1.025000 0.400000 0.000000
1.025000 0.425000 0.000000
1.025000 0.450000 0.000000
1.025000 0.475000 0.000000
1.025000 0.500000 0.000000
1.025000 0.525000 0.000000
1.025000 0.550000 0.000000
1.025000 0.575000 0.000000
1.025000 0.600000 0.000000
1.050000 -0.075000 0.000000
1.050000 -0.050000 0.000000
1.050000 -0.025000 0.000000
1.050000 0.000000 0.000000
1.050000 0.025000 0.000000
1.050000 0.050000 0.000000
1.050000 0.075000 0.000000
1.050000 0.100000 0.000000
1.050000 0.125000 0.000000
1.050000 0.150000 0.000000
1.050000 0.175000 0.000000
1.050000 0.200000 0.000000
1.050000 0.225000 0.000000
1.050000 0.250000 0.000000
1.050000 0.275000 0.000000
1.050000 0.300000 0.000000
1.050000 0.325000 0.000000
1.050000 0.350000 0.000000
1.050000 0.375000 0.000000
1.050000 0.400000 0.000000
1.050000 0.425000 0.000000
1.050000 0.450000 0.000000
1.050000 0.475000 0.000000
1.050000 0.500000 0.000000
1.050000 0.525000 0.000000
1.050000 0.550000 0.000000
1.050000 0.575000 0.000000
1.050000 0.600000 0.000000
1.075000 -0.075000 0.000000
1.075000 -0.050000 0.000000
1.075000 -0.025000 0.000000
1.075000 0.000000 0.000000
1.075000 0.025000 0.000000
1.075000 0.050000 0.000000
1.075000 0.075000 0.000000
1.075000 0.100000 0.000000
1.075000 0.125000 0.000000
1.075000 0.150000 0.000000
1.075000 0.175000 0.000000
1.075000 0.200000 0.000000
1.075000 0.225000 0.000000
1.075000 0.250000 0.000000
1.075000 0.275000 0.000000
1.075000 0.300000 0.000000
1.075000 0.325000 0.000000
1.075000 0.350000 0.000000
1.075000 0.375000 0.000000
1.075000 0.400000 0.000000
1.075000 0.425000 0.000000
1.075000 0.450000 0.000000
1.075000 0.475000 0.000000
1.075000 0.500000 0.000000
1.075000 0.525000 0.000000
1.075000 0.550000 0.000000
1.075000 0.575000 0.000000
1.075000 0.600000 0.000000
1.100000 -0.075000 0.000000
1.100000 -0.050000 0.000000
1.100000 -0.025000 0.000000
1.100000 0.000000 0.000000
1.100000 0.025000 0.000000
1.100000 0.050000 0.000000
1.100000 0.075000 0.000000
1.100000 0.100000 0.000000
1.100000 0.125000 0.000000
1.100000 0.150000 0.000000
1.100000 0.175000 0.000000
1.100000 0.200000 0.000000
1.100000 0.225000 0.000000
1.100000 0.250000 0.000000
1.100000 0.275000 0.000000
1.100000 0.300000 0.000000
1.100000 0.325000 0.000000
1.100000 0.350000 0.000000
1.100000 0.375000 0.000000
1.100000 0.400000 0.000000
1.100000 0.425000 0.000000
1.100000 0.450000 0.000000
1.100000 0.475000 0.000000
1.100000 0.500000 0.000000
1.100000 0.525000 0.000000
1.100000 0.550000 0.000000
1.100000 0.575000 0.000000
1.100000 0.600000 0.000000
</DataArray>
</Points>
<PointData>
<DataArray NumberOfComponents='1' type='Int32' Name='ParticleType' format='ascii'>
3
3
3
3
3
3
3
3
3
3
3
3
3
3
3
3
3
3
3
3
3
3
3
3
3
3
2
2
3
3
3
3
3
3
3
3
3
3
3
3
3
3
3
3
3
3
3
3
3
3
3
3
3
3
2
2
3
3
2
2
2
2
2
2
2
2
2
2
2
2
2
2
2
2
2
2
2
2
2
2
2
2
2
2
3
3
2
2
2
2
2
2
2
2
2
2
2
2
2
2
2
2
2
2
2
2
2
2
2
2
2
2
3
3
2
2
0
0
0
0
0
0
0
0
0
0
0
0
0
0
0
0
0
0
0
0
3
3
2
2
0
0
0
0
0
0
0
0
0
0
0
0
0
0
0
0
0
0
0
0
3
3
2
2
0
0
0
0
0
0
0
0
0
0
0
0
0
0
0
0
0
0
0
0
3
3
2
2
0
0
0
0
0
0
0
0
0
0
0
0
0
0
0
0
0
0
0
0
3
3
2
2
0
0
0
0
0
0
0
0
0
0
0
0
0
0
0
0
0
0
0
0
3
3
2
2
0
0
0
0
0
0
0
0
0
0
0
0
0
0
0
0
0
0
0
0
3
3
2
2
0
0
0
0
0
0
0
0
0
0
0
0
0
0
0
0
0
0
0
0
3
3
2
2
0
0
0
0
0
0
0
0
0
0
0
0
0
0
0
0
0
0
0
0
3
3
2
2
0
0
0
0
0
0
0
0
0
0
0
0
0
0
0
0
0
0
0
0
3
3
2
2
0
0
0
0
0
0
0
0
0
0
0
0
0
0
0
0
0
0
0
0
3
3
2
2
3
3
2
2
3
3
2
2
3
3
2
2
3
3
2
2
3
3
2
2
3
3
2
2
3
3
2
2
3
3
2
2
3
3
2
2
3
3
2
2
3
3
2
2
3
3
2
2
3
3
2
2
3
3
2
2
3
3
2
2
3
3
2
2
3
3
2
2
3
3
2
2
3
3
2
2
3
3
2
2
3
3
2
2
3
3
2
2
3
3
2
2
3
3
2
2
3
3
2
2
3
3
2
2
3
3
2
2
3
3
2
2
3
3
2
2
3
3
2
2
2
2
2
2
2
2
2
2
2
2
2
2
2
2
2
2
2
2
2
2
2
2
2
2
3
3
2
2
2
2
2
2
2
2
2
2
2
2
2
2
2
2
2
2
2
2
2
2
2
2
2
2
3
3
3
3
3
3
3
3
3
3
3
3
3
3
3
3
3
3
3
3
3
3
3
3
3
3
2
2
3
3
3
3
3
3
3
3
3
3
3
3
3
3
3
3
3
3
3
3
3
3
3
3
3
3
2
2
</DataArray>
<DataArray NumberOfComponents='1' type='Float32' Name='Velocity' format='ascii'>
0.000000
0.000000
0.000000
0.000000
0.000000
0.000000
0.000000
0.000000
0.000000
0.000000
0.000000
0.000000
0.000000
0.000000
0.000000
0.000000
0.000000
0.000000
0.000000
0.000000
0.000000
0.000000
0.000000
0.000000
0.000000
0.000000
0.000000
0.000000
0.000000
0.000000
0.000000
0.000000
0.000000
0.000000
0.000000
0.000000
0.000000
0.000000
0.000000
0.000000
0.000000
0.000000
0.000000
0.000000
0.000000
0.000000
0.000000
0.000000
0.000000
0.000000
0.000000
0.000000
0.000000
0.000000
0.000000
0.000000
0.000000
0.000000
0.000000
0.000000
0.000000
0.000000
0.000000
0.000000
0.000000
0.000000
0.000000
0.000000
0.000000
0.000000
0.000000
0.000000
0.000000
0.000000
0.000000
0.000000
0.000000
0.000000
0.000000
0.000000
0.000000
0.000000
0.000000
0.000000
0.000000
0.000000
0.000000
0.000000
0.000000
0.000000
0.000000
0.000000
0.000000
0.000000
0.000000
0.000000
0.000000
0.000000
0.000000
0.000000
0.000000
0.000000
0.000000
0.000000
0.000000
0.000000
0.000000
0.000000
0.000000
0.000000
0.000000
0.000000
0.000000
0.000000
0.000000
0.000000
0.037309
0.060353
0.104514
0.141651
0.160489
0.204483
0.243787
0.279781
0.303252
0.342110
0.365548
0.386387
0.407453
0.437065
0.433434
0.476463
0.453512
0.503016
0.491619
0.486047
0.000000
0.000000
0.000000
0.000000
0.118929
0.147175
0.142628
0.177476
0.216715
0.247503
0.264670
0.312709
0.337636
0.367143
0.391508
0.410158
0.417467
0.463756
0.451681
0.489943
0.481173
0.494725
0.503910
0.503591
0.000000
0.000000
0.000000
0.000000
0.145290
0.123015
0.178010
0.183145
0.193478
0.243713
0.266767
0.295136
0.338560
0.361331
0.383124
0.427932
0.407221
0.450895
0.450148
0.455248
0.481568
0.508909
0.494326
0.504330
0.000000
0.000000
0.000000
0.000000
0.275834
0.261143
0.235715
0.280914
0.283508
0.293260
0.329708
0.354412
0.375115
0.401602
0.406159
0.456384
0.451777
0.471093
0.479206
0.495147
0.488543
0.510887
0.506550
0.510934
0.000000
0.000000
0.000000
0.000000
0.282728
0.267350
0.307244
0.274629
0.309636
0.321819
0.330103
0.368377
0.386857
0.412175
0.426072
0.449367
0.451298
0.486201
0.480395
0.496215
0.492370
0.512380
0.511485
0.516788
0.000000
0.000000
0.000000
0.000000
0.474053
0.380692
0.382854
0.416643
0.364546
0.407198
0.411755
0.421638
0.441659
0.455377
0.471676
0.487441
0.477085
0.515751
0.502544
0.514626
0.524747
0.533101
0.520755
0.528966
0.000000
0.000000
0.000000
0.000000
0.472266
0.490097
0.442352
0.465787
0.448879
0.421338
0.453944
0.449723
0.471189
0.475020
0.487465
0.504955
0.500382
0.520224
0.509436
0.535633
0.520149
0.530179
0.538295
0.537050
0.000000
0.000000
0.000000
0.000000
0.699933
0.594851
0.587844
0.554711
0.579515
0.536806
0.540472
0.530013
0.532229
0.532793
0.534745
0.544806
0.533798
0.546198
0.547637
0.547975
0.550119
0.563939
0.546294
0.556354
0.000000
0.000000
0.000000
0.000000
0.824969
0.834996
0.720943
0.691202
0.633138
0.611646
0.577163
0.577022
0.563889
0.561473
0.556674
0.561704
0.555741
0.560246
0.556090
0.564652
0.559197
0.558569
0.555749
0.570722
0.000000
0.000000
0.000000
0.000000
1.221227
1.148463
1.013609
0.937495
0.821956
0.769827
0.700002
0.670783
0.640192
0.625800
0.609793
0.604177
0.595587
0.593285
0.587764
0.588018
0.585335
0.582684
0.582441
0.585252
0.000000
0.000000
0.000000
0.000000
0.000000
0.000000
0.000000
0.000000
0.000000
0.000000
0.000000
0.000000
0.000000
0.000000
0.000000
0.000000
0.000000
0.000000
0.000000
0.000000
0.000000
0.000000
0.000000
0.000000
0.000000
0.000000
0.000000
0.000000
0.000000
0.000000
0.000000
0.000000
0.000000
0.000000
0.000000
0.000000
0.000000
0.000000
0.000000
0.000000
0.000000
0.000000
0.000000
0.000000
0.000000
0.000000
0.000000
0.000000
0.000000
0.000000
0.000000
0.000000
0.000000
0.000000
0.000000
0.000000
0.000000
0.000000
0.000000
0.000000
0.000000
0.000000
0.000000
0.000000
0.000000
0.000000
0.000000
0.000000
0.000000
0.000000
0.000000
0.000000
0.000000
0.000000
0.000000
0.000000
0.000000
0.000000
0.000000
0.000000
0.000000
0.000000
0.000000
0.000000
0.000000
0.000000
0.000000
0.000000
0.000000
0.000000
0.000000
0.000000
0.000000
0.000000
0.000000
0.000000
0.000000
0.000000
0.000000
0.000000
0.000000
0.000000
0.000000
0.000000
0.000000
0.000000
0.000000
0.000000
0.000000
0.000000
0.000000
0.000000
0.000000
0.000000
0.000000
0.000000
0.000000
0.000000
0.000000
0.000000
0.000000
0.000000
0.000000
0.000000
0.000000
0.000000
0.000000
0.000000
0.000000
0.000000
0.000000
0.000000
0.000000
0.000000
0.000000
0.000000
0.000000
0.000000
0.000000
0.000000
0.000000
0.000000
0.000000
0.000000
0.000000
0.000000
0.000000
0.000000
0.000000
0.000000
0.000000
0.000000
0.000000
0.000000
0.000000
0.000000
0.000000
0.000000
0.000000
0.000000
0.000000
0.000000
0.000000
0.000000
0.000000
0.000000
0.000000
0.000000
0.000000
0.000000
0.000000
0.000000
0.000000
0.000000
0.000000
0.000000
0.000000
0.000000
0.000000
0.000000
0.000000
0.000000
0.000000
0.000000
0.000000
0.000000
0.000000
0.000000
0.000000
0.000000
0.000000
0.000000
0.000000
0.000000
0.000000
0.000000
0.000000
0.000000
0.000000
0.000000
0.000000
0.000000
0.000000
0.000000
0.000000
0.000000
0.000000
0.000000
0.000000
0.000000
0.000000
0.000000
0.000000
0.000000
0.000000
0.000000
0.000000
0.000000
0.000000
0.000000
0.000000
0.000000
0.000000
0.000000
0.000000
0.000000
0.000000
0.000000
0.000000
0.000000
0.000000
0.000000
</DataArray>
<DataArray NumberOfComponents='1' type='Float32' Name='pressure' format='ascii'>
0.000000
0.000000
0.000000
0.000000
0.000000
0.000000
0.000000
0.000000
0.000000
0.000000
0.000000
0.000000
0.000000
0.000000
0.000000
0.000000
0.000000
0.000000
0.000000
0.000000
0.000000
0.000000
0.000000
0.000000
0.000000
0.000000
0.000000
0.000000
0.000000
0.000000
0.000000
0.000000
0.000000
0.000000
0.000000
0.000000
0.000000
0.000000
0.000000
0.000000
0.000000
0.000000
0.000000
0.000000
0.000000
0.000000
0.000000
0.000000
0.000000
0.000000
0.000000
0.000000
0.000000
0.000000
0.000000
0.000000
0.000000
0.000000
3399.134766
3264.527344
2857.946289
2808.440918
2512.277588
2266.057861
1901.606567
1714.014160
1448.895874
1289.265991
1124.366699
923.109192
716.337158
536.737732
399.140350
292.345123
165.791016
64.479446
0.000000
0.000000
0.000000
0.000000
0.000000
0.000000
0.000000
0.000000
0.000000
0.000000
3514.500244
3446.874756
2843.045410
3006.403564
2876.451904
2652.056152
2359.991699
2311.413086
2144.473389
1935.667236
1715.081177
1431.636963
1195.959351
991.932190
838.291687
763.313965
627.307434
570.775208
304.028961
215.999039
0.000000
0.000000
0.000000
0.000000
0.000000
0.000000
0.000000
0.000000
3884.530518
4027.492188
3506.849365
3461.445068
3092.417236
3229.370361
2869.134521
2880.000000
2611.569580
2512.477051
2222.123047
2100.683594
1740.804077
1568.515625
1207.968994
921.556763
846.564697
384.568298
367.270569
271.419434
471.197906
0.000000
0.000000
0.000000
3593.934570
3361.229248
2860.271973
3163.218262
2621.586670
2518.698486
2395.079590
2264.782959
1927.711426
1889.112061
1619.885864
1508.370850
1287.987183
1338.260986
1142.062988
667.120300
617.854431
81.375366
0.000000
159.190384
234.259735
0.000000
0.000000
0.000000
3714.979492
3654.560059
3117.212158
3083.558594
2921.040771
2891.861084
2585.062744
2659.952637
2310.628418
2156.822510
1880.178467
1814.810669
1502.499878
1290.439331
1261.622803
1011.915771
951.633667
831.742004
430.168335
216.616089
257.586334
0.000000
0.000000
0.000000
3404.162842
3316.274658
2689.743164
2779.467285
2250.190918
2383.866455
2133.696289
1935.298828
1758.190430
1679.655762
1321.753174
1337.889893
1136.797974
837.059875
775.174561
764.421936
586.722046
528.102295
513.823853
135.523865
110.966095
0.000000
0.000000
0.000000
3291.263672
3195.747559
2549.180420
2749.410156
2625.168701
2317.800537
2298.765869
2231.205811
1792.408203
1739.883057
1454.292358
1374.587769
1157.340942
1070.897461
922.902893
711.093750
584.249390
493.459198
409.690216
226.795425
204.013504
0.000000
0.000000
0.000000
3246.323242
3146.322021
2472.875488
2256.636963
1887.089478
2073.999756
1594.416504
1699.672974
1529.604126
1245.595825
1101.266846
1030.959717
764.447021
766.953552
689.475403
459.299347
466.421356
378.909515
196.737595
145.280243
120.909813
0.000000
0.000000
0.000000
2974.935303
2515.911621
2101.390869
2418.013916
1689.483521
1917.645264
1865.004639
1584.199829
1472.841675
1180.693970
1070.249023
978.276855
792.064026
703.596497
579.844788
533.366150
477.161346
286.467255
345.518768
142.733353
109.699135
0.000000
0.000000
0.000000
2666.751465
2435.404785
939.063721
1636.491699
1289.409302
1144.428833
1102.688354
802.431091
877.124207
796.129822
636.371582
550.271179
444.437958
401.830353
322.677826
310.028320
169.554077
150.762863
158.713608
0.000000
12.304104
0.000000
0.000000
0.000000
2574.911621
2396.908691
1327.558594
1687.840088
1153.227539
1036.304443
1024.127319
1084.925781
769.016663
654.235291
560.674500
497.614197
396.089600
368.059570
281.653900
303.009003
227.413208
167.965103
160.701279
36.124840
217.571014
0.000000
0.000000
0.000000
2197.329102
2080.270020
0.000000
0.000000
0.000000
0.000000
0.000000
0.000000
0.000000
0.000000
0.000000
0.000000
0.000000
0.000000
0.000000
0.000000
0.000000
0.000000
0.000000
0.000000
0.000000
0.000000
0.000000
0.000000
994.490051
0.000000
0.000000
0.000000
47.495712
0.000000
0.000000
0.000000
0.000000
0.000000
0.000000
0.000000
0.000000
0.000000
0.000000
0.000000
0.000000
0.000000
0.000000
0.000000
0.000000
0.000000
0.000000
0.000000
0.000000
0.000000
0.000000
0.000000
0.000000
0.000000
0.000000
0.000000
0.000000
0.000000
0.000000
0.000000
0.000000
0.000000
0.000000
0.000000
0.000000
0.000000
0.000000
0.000000
0.000000
0.000000
0.000000
0.000000
0.000000
0.000000
0.000000
0.000000
0.000000
0.000000
0.000000
0.000000
0.000000
0.000000
0.000000
0.000000
0.000000
0.000000
0.000000
0.000000
0.000000
0.000000
0.000000
0.000000
0.000000
0.000000
0.000000
0.000000
0.000000
0.000000
0.000000
0.000000
0.000000
0.000000
0.000000
0.000000
0.000000
0.000000
0.000000
0.000000
0.000000
0.000000
0.000000
0.000000
0.000000
0.000000
0.000000
0.000000
0.000000
0.000000
0.000000
0.000000
0.000000
0.000000
0.000000
0.000000
0.000000
0.000000
0.000000
0.000000
0.000000
0.000000
0.000000
0.000000
0.000000
0.000000
0.000000
0.000000
0.000000
0.000000
0.000000
0.000000
0.000000
0.000000
0.000000
0.000000
0.000000
0.000000
0.000000
0.000000
0.000000
0.000000
0.000000
0.000000
0.000000
0.000000
0.000000
0.000000
0.000000
0.000000
0.000000
0.000000
0.000000
0.000000
0.000000
0.000000
0.000000
0.000000
0.000000
0.000000
0.000000
0.000000
0.000000
0.000000
0.000000
0.000000
0.000000
0.000000
0.000000
0.000000
0.000000
0.000000
0.000000
0.000000
0.000000
0.000000
0.000000
0.000000
0.000000
0.000000
0.000000
0.000000
0.000000
0.000000
0.000000
0.000000
0.000000
0.000000
0.000000
0.000000
0.000000
0.000000
0.000000
0.000000
0.000000
0.000000
0.000000
0.000000
0.000000
0.000000
0.000000
0.000000
0.000000
0.000000
0.000000
0.000000
0.000000
0.000000
0.000000
0.000000
0.000000
0.000000
0.000000
0.000000
0.000000
0.000000
0.000000
0.000000
0.000000
0.000000
0.000000
0.000000
0.000000
0.000000
0.000000
0.000000
0.000000
0.000000
0.000000
0.000000
0.000000
0.000000
0.000000
0.000000
0.000000
0.000000
0.000000
0.000000
0.000000
0.000000
0.000000
0.000000
0.000000
0.000000
0.000000
0.000000
</DataArray>
</PointData>
<Cells>
<DataArray type='Int32' Name='connectivity' format='ascii'>
0
1
2
3
4
5
6
7
8
9
10
11
12
13
14
15
16
17
18
19
20
21
22
23
24
25
26
27
28
29
30
31
32
33
34
35
36
37
38
39
40
41
42
43
44
45
46
47
48
49
50
51
52
53
54
55
56
57
58
59
60
61
62
63
64
65
66
67
68
69
70
71
72
73
74
75
76
77
78
79
80
81
82
83
84
85
86
87
88
89
90
91
92
93
94
95
96
97
98
99
100
101
102
103
104
105
106
107
108
109
110
111
112
113
114
115
116
117
118
119
120
121
122
123
124
125
126
127
128
129
130
131
132
133
134
135
136
137
138
139
140
141
142
143
144
145
146
147
148
149
150
151
152
153
154
155
156
157
158
159
160
161
162
163
164
165
166
167
168
169
170
171
172
173
174
175
176
177
178
179
180
181
182
183
184
185
186
187
188
189
190
191
192
193
194
195
196
197
198
199
200
201
202
203
204
205
206
207
208
209
210
211
212
213
214
215
216
217
218
219
220
221
222
223
224
225
226
227
228
229
230
231
232
233
234
235
236
237
238
239
240
241
242
243
244
245
246
247
248
249
250
251
252
253
254
255
256
257
258
259
260
261
262
263
264
265
266
267
268
269
270
271
272
273
274
275
276
277
278
279
280
281
282
283
284
285
286
287
288
289