<?xml version='1.0' encoding='UTF-8'?>
<VTKFile xmlns='VTK' byte_order='LittleEndian' version='0.1' type='UnstructuredGrid'>
<UnstructuredGrid>
<Piece NumberOfCells='584' NumberOfPoints='584'>
<Points>
<DataArray NumberOfComponents='3' type='Float32' Name='Position' format='ascii'>
-0.075000 -0.075000 0.000000
-0.075000 -0.050000 0.000000
-0.075000 -0.025000 0.000000
-0.075000 0.000000 0.000000
-0.075000 0.025000 0.000000
-0.075000 0.050000 0.000000
-0.075000 0.075000 0.000000
-0.075000 0.100000 0.000000
-0.075000 0.125000 0.000000
-0.075000 0.150000 0.000000
-0.075000 0.175000 0.000000
-0.075000 0.200000 0.000000
-0.075000 0.225000 0.000000
-0.075000 0.250000 0.000000
-0.075000 0.275000 0.000000
-0.075000 0.300000 0.000000
-0.075000 0.325000 0.000000
-0.075000 0.350000 0.000000
-0.075000 0.375000 0.000000
-0.075000 0.400000 0.000000
-0.075000 0.425000 0.000000
-0.075000 0.450000 0.000000
-0.075000 0.475000 0.000000
-0.075000 0.500000 0.000000
-0.075000 0.525000 0.000000
-0.075000 0.550000 0.000000
-0.075000 0.575000 0.000000
-0.075000 0.600000 0.000000
-0.050000 -0.075000 0.000000
-0.050000 -0.050000 0.000000
-0.050000 -0.025000 0.000000
-0.050000 0.000000 0.000000
-0.050000 0.025000 0.000000
-0.050000 0.050000 0.000000
-0.050000 0.075000 0.000000
-0.050000 0.100000 0.000000
-0.050000 0.125000 0.000000
-0.050000 0.150000 0.000000
-0.050000 0.175000 0.000000
-0.050000 0.200000 0.000000
-0.050000 0.225000 0.000000
-0.050000 0.250000 0.000000
-0.050000 0.275000 0.000000
-0.050000 0.300000 0.000000
-0.050000 0.325000 0.000000
-0.050000 0.350000 0.000000
-0.050000 0.375000 0.000000
-0.050000 0.400000 0.000000
-0.050000 0.425000 0.000000
-0.050000 0.450000 0.000000
-0.050000 0.475000 0.000000
-0.050000 0.500000 0.000000
-0.050000 0.525000 0.000000
-0.050000 0.550000 0.000000
-0.050000 0.575000 0.000000
-0.050000 0.600000 0.000000
-0.025000 -0.075000 0.000000
-0.025000 -0.050000 0.000000
-0.025000 -0.025000 0.000000
-0.025000 0.000000 0.000000
-0.025000 0.025000 0.000000
-0.025000 0.050000 0.000000
-0.025000 0.075000 0.000000
-0.025000 0.100000 0.000000
-0.025000 0.125000 0.000000
-0.025000 0.150000 0.000000
-0.025000 0.175000 0.000000
-0.025000 0.200000 0.000000
-0.025000 0.225000 0.000000
-0.025000 0.250000 0.000000
-0.025000 0.275000 0.000000
-0.025000 0.300000 0.000000
-0.025000 0.325000 0.000000
-0.025000 0.350000 0.000000
-0.025000 0.375000 0.000000
-0.025000 0.400000 0.000000
-0.025000 0.425000 0.000000
-0.025000 0.450000 0.000000
-0.025000 0.475000 0.000000
-0.025000 0.500000 0.000000
-0.025000 0.525000 0.000000
-0.025000 0.550000 0.000000
-0.025000 0.575000 0.000000
-0.025000 0.600000 0.000000
0.000000 -0.075000 0.000000
0.000000 -0.050000 0.000000
0.000000 -0.025000 0.000000
0.000000 0.000000 0.000000
0.000000 0.025000 0.000000
0.000000 0.050000 0.000000
0.000000 0.075000 0.000000
0.000000 0.100000 0.000000
0.000000 0.125000 0.000000
0.000000 0.150000 0.000000
0.000000 0.175000 0.000000
0.000000 0.200000 0.000000
0.000000 0.225000 0.000000
0.000000 0.250000 0.000000
0.000000 0.275000 0.000000
0.000000 0.300000 0.000000
0.000000 0.325000 0.000000
0.000000 0.350000 0.000000
0.000000 0.375000 0.000000
0.000000 0.400000 0.000000
0.000000 0.425000 0.000000
0.000000 0.450000 0.000000
0.000000 0.475000 0.000000
0.000000 0.500000 0.000000
0.000000 0.525000 0.000000
0.000000 0.550000 0.000000
0.000000 0.575000 0.000000
0.000000 0.600000 0.000000
0.025000 -0.075000 0.000000
0.025000 -0.050000 0.000000
0.025000 -0.025000 0.000000
0.025000 0.000000 0.000000
0.026771 0.023279 0.000000
0.026153 0.044488 0.000000
0.028110 0.066439 0.000000
0.025376 0.088072 0.000000
0.027311 0.110268 0.000000
0.025673 0.132378 0.000000
0.026953 0.154662 0.000000
0.025590 0.177033 0.000000
0.026173 0.199859 0.000000
0.025373 0.222390 0.000000
0.025730 0.245743 0.000000
0.025486 0.268631 0.000000
0.025610 0.292263 0.000000
0.025674 0.315444 0.000000
0.025354 0.339537 0.000000
0.025568 0.362989 0.000000
0.024960 0.387620 0.000000
0.025677 0.411309 0.000000
0.024489 0.436708 0.000000
0.024767 0.460008 0.000000
0.050000 -0.075000 0.000000
0.050000 -0.050000 0.000000
0.050000 -0.025000 0.000000
0.050000 0.000000 0.000000
0.058930 0.023137 0.000000
0.057494 0.043477 0.000000
0.057230 0.066063 0.000000
0.057157 0.087177 0.000000
0.056646 0.109463 0.000000
0.056186 0.130712 0.000000
0.055664 0.153655 0.000000
0.055247 0.175267 0.000000
0.054825 0.198189 0.000000
0.054380 0.220764 0.000000
0.053953 0.243759 0.000000
0.053484 0.266551 0.000000
0.053106 0.290400 0.000000
0.052524 0.313534 0.000000
0.052310 0.337723 0.000000
0.051546 0.361477 0.000000
0.051540 0.385736 0.000000
0.050679 0.409873 0.000000
0.050598 0.435041 0.000000
0.050221 0.458466 0.000000
0.075000 -0.075000 0.000000
0.075000 -0.050000 0.000000
0.075000 -0.025000 0.000000
0.075000 0.000000 0.000000
0.089554 0.023118 0.000000
0.086681 0.044274 0.000000
0.086314 0.066121 0.000000
0.085889 0.087294 0.000000
0.085313 0.109481 0.000000
0.084397 0.131369 0.000000
0.083947 0.153500 0.000000
0.082824 0.176078 0.000000
0.082260 0.198687 0.000000
0.081268 0.221355 0.000000
0.080528 0.244534 0.000000
0.079782 0.267581 0.000000
0.079163 0.291012 0.000000
0.078481 0.314479 0.000000
0.077928 0.338182 0.000000
0.077294 0.361904 0.000000
0.076656 0.386515 0.000000
0.076236 0.410117 0.000000
0.075648 0.435586 0.000000
0.075094 0.459006 0.000000
0.100000 -0.075000 0.000000
0.100000 -0.050000 0.000000
0.100000 -0.025000 0.000000
0.100000 0.000000 0.000000
0.119450 0.023378 0.000000
0.118236 0.043839 0.000000
0.117287 0.065506 0.000000
0.116632 0.086268 0.000000
0.115441 0.108133 0.000000
0.114344 0.129536 0.000000
0.113095 0.151798 0.000000
0.111984 0.173708 0.000000
0.110717 0.196479 0.000000
0.109667 0.218862 0.000000
0.108613 0.242204 0.000000
0.107536 0.265066 0.000000
0.106609 0.288916 0.000000
0.105538 0.312212 0.000000
0.104572 0.336456 0.000000
0.103776 0.360063 0.000000
0.102860 0.384620 0.000000
0.101939 0.408802 0.000000
0.101207 0.433875 0.000000
0.100266 0.457602 0.000000
0.125000 -0.075000 0.000000
0.125000 -0.050000 0.000000
0.125000 -0.025000 0.000000
0.125000 0.000000 0.000000
0.152340 0.023485 0.000000
0.148332 0.042475 0.000000
0.148248 0.064749 0.000000
0.146404 0.085233 0.000000
0.145211 0.107354 0.000000
0.143470 0.128952 0.000000
0.141964 0.151203 0.000000
0.140214 0.173451 0.000000
0.138648 0.196154 0.000000
0.137003 0.219041 0.000000
0.135515 0.241999 0.000000
0.134041 0.265291 0.000000
0.132686 0.288706 0.000000
0.131416 0.312196 0.000000
0.130425 0.336217 0.000000
0.128922 0.359930 0.000000
0.128481 0.384595 0.000000
0.127038 0.408402 0.000000
0.126496 0.433727 0.000000
0.125270 0.457526 0.000000
0.150000 -0.075000 0.000000
0.150000 -0.050000 0.000000
0.150000 -0.025000 0.000000
0.150000 0.000000 0.000000
0.185125 0.022677 0.000000
0.180929 0.041946 0.000000
0.179628 0.063545 0.000000
0.177832 0.083336 0.000000
0.175582 0.105025 0.000000
0.173692 0.125895 0.000000
0.171314 0.148243 0.000000
0.169321 0.170116 0.000000
0.167131 0.192884 0.000000
0.165202 0.215556 0.000000
0.163197 0.238837 0.000000
0.161513 0.262128 0.000000
0.159756 0.285998 0.000000
0.158367 0.309657 0.000000
0.156687 0.333864 0.000000
0.155541 0.357869 0.000000
0.154033 0.382592 0.000000
0.152792 0.406680 0.000000
0.151895 0.432039 0.000000
0.150394 0.455769 0.000000
0.175000 -0.075000 0.000000
0.175000 -0.050000 0.000000
0.175000 -0.025000 0.000000
0.175000 0.000000 0.000000
0.219022 0.021629 0.000000
0.213788 0.041686 0.000000
0.212701 0.061180 0.000000
0.209344 0.082101 0.000000
0.206800 0.103390 0.000000
0.203856 0.124878 0.000000
0.200771 0.146720 0.000000
0.198116 0.168962 0.000000
0.195056 0.191761 0.000000
0.192745 0.214545 0.000000
0.190101 0.238106 0.000000
0.188125 0.261347 0.000000
0.185898 0.285304 0.000000
0.184086 0.308823 0.000000
0.182482 0.333219 0.000000
0.180762 0.357141 0.000000
0.179574 0.381770 0.000000
0.177988 0.406172 0.000000
0.176899 0.431127 0.000000
0.175319 0.455307 0.000000
0.200000 -0.075000 0.000000
0.200000 -0.050000 0.000000
0.200000 -0.025000 0.000000
0.200000 0.000000 0.000000
0.258239 0.022409 0.000000
0.248090 0.037713 0.000000
0.246433 0.057940 0.000000
0.241857 0.077715 0.000000
0.238316 0.097931 0.000000
0.234524 0.118952 0.000000
0.230614 0.141553 0.000000
0.227164 0.163485 0.000000
0.223635 0.186910 0.000000
0.220495 0.210030 0.000000
0.217555 0.233804 0.000000
0.214909 0.257578 0.000000
0.212527 0.281615 0.000000
0.210358 0.306009 0.000000
0.208484 0.330295 0.000000
0.206549 0.354849 0.000000
0.205211 0.379619 0.000000
0.203326 0.404026 0.000000
0.202395 0.429285 0.000000
0.200480 0.453473 0.000000
0.225000 -0.075000 0.000000
0.225000 -0.050000 0.000000
0.225000 -0.025000 0.000000
0.225000 0.000000 0.000000
0.293054 0.021082 0.000000
0.294301 0.041180 0.000000
0.278646 0.056232 0.000000
0.278827 0.075289 0.000000
0.270041 0.095793 0.000000
0.266030 0.117056 0.000000
0.259991 0.138633 0.000000
0.255558 0.161549 0.000000
0.251019 0.184614 0.000000
0.247335 0.208157 0.000000
0.243870 0.232120 0.000000
0.240923 0.256099 0.000000
0.238413 0.280481 0.000000
0.236044 0.304667 0.000000
0.233969 0.329262 0.000000
0.232085 0.353783 0.000000
0.230264 0.378446 0.000000
0.228605 0.403279 0.000000
0.227225 0.428167 0.000000
0.225370 0.452569 0.000000
0.250000 -0.075000 0.000000
0.250000 -0.050000 0.000000
0.250000 -0.025000 0.000000
0.250000 0.000000 0.000000
0.357748 0.023255 0.000000
0.331837 0.023237 0.000000
0.323589 0.040478 0.000000
0.314146 0.058915 0.000000
0.304578 0.082676 0.000000
0.297108 0.105390 0.000000
0.289528 0.129652 0.000000
0.284076 0.153398 0.000000
0.278581 0.177990 0.000000
0.274356 0.202334 0.000000
0.270349 0.227078 0.000000
0.267011 0.251761 0.000000
0.264012 0.276565 0.000000
0.261290 0.301391 0.000000
0.259192 0.326237 0.000000
0.256897 0.351170 0.000000
0.255386 0.376041 0.000000
0.253432 0.401056 0.000000
0.252121 0.425974 0.000000
0.250374 0.450883 0.000000
0.275000 -0.075000 0.000000
0.275000 -0.050000 0.000000
0.275000 -0.025000 0.000000
0.275000 0.000000 0.000000
0.300000 -0.075000 0.000000
0.300000 -0.050000 0.000000
0.300000 -0.025000 0.000000
0.300000 0.000000 0.000000
0.325000 -0.075000 0.000000
0.325000 -0.050000 0.000000
0.325000 -0.025000 0.000000
0.325000 0.000000 0.000000
0.350000 -0.075000 0.000000
0.350000 -0.050000 0.000000
0.350000 -0.025000 0.000000
0.350000 0.000000 0.000000
0.375000 -0.075000 0.000000
0.375000 -0.050000 0.000000
0.375000 -0.025000 0.000000
0.375000 0.000000 0.000000
0.400000 -0.075000 0.000000
0.400000 -0.050000 0.000000
0.400000 -0.025000 0.000000
0.400000 0.000000 0.000000
0.425000 -0.075000 0.000000
0.425000 -0.050000 0.000000
0.425000 -0.025000 0.000000
0.425000 0.000000 0.000000
0.450000 -0.075000 0.000000
0.450000 -0.050000 0.000000
0.450000 -0.025000 0.000000
0.450000 0.000000 0.000000
0.475000 -0.075000 0.000000
0.475000 -0.050000 0.000000
0.475000 -0.025000 0.000000
0.475000 0.000000 0.000000
0.500000 -0.075000 0.000000
0.500000 -0.050000 0.000000
0.500000 -0.025000 0.000000
0.500000 0.000000 0.000000
0.525000 -0.075000 0.000000
0.525000 -0.050000 0.000000
0.525000 -0.025000 0.000000
0.525000 0.000000 0.000000
0.550000 -0.075000 0.000000
0.550000 -0.050000 0.000000
0.550000 -0.025000 0.000000
0.550000 0.000000 0.000000
0.575000 -0.075000 0.000000
0.575000 -0.050000 0.000000
0.575000 -0.025000 0.000000
0.575000 0.000000 0.000000
0.600000 -0.075000 0.000000
0.600000 -0.050000 0.000000
0.600000 -0.025000 0.000000
0.600000 0.000000 0.000000
0.625000 -0.075000 0.000000
0.625000 -0.050000 0.000000
0.625000 -0.025000 0.000000
0.625000 0.000000 0.000000
0.650000 -0.075000 0.000000
0.650000 -0.050000 0.000000
0.650000 -0.025000 0.000000
0.650000 0.000000 0.000000
0.675000 -0.075000 0.000000
0.675000 -0.050000 0.000000
0.675000 -0.025000 0.000000
0.675000 0.000000 0.000000
0.700000 -0.075000 0.000000
0.700000 -0.050000 0.000000
0.700000 -0.025000 0.000000
0.700000 0.000000 0.000000
0.725000 -0.075000 0.000000
0.725000 -0.050000 0.000000
0.725000 -0.025000 0.000000
0.725000 0.000000 0.000000
0.750000 -0.075000 0.000000
0.750000 -0.050000 0.000000
0.750000 -0.025000 0.000000
0.750000 0.000000 0.000000
0.775000 -0.075000 0.000000
0.775000 -0.050000 0.000000
0.775000 -0.025000 0.000000
0.775000 0.000000 0.000000
0.800000 -0.075000 0.000000
0.800000 -0.050000 0.000000
0.800000 -0.025000 0.000000
0.800000 0.000000 0.000000
0.825000 -0.075000 0.000000
0.825000 -0.050000 0.000000
0.825000 -0.025000 0.000000
0.825000 0.000000 0.000000
0.850000 -0.075000 0.000000
0.850000 -0.050000 0.000000
0.850000 -0.025000 0.000000
0.850000 0.000000 0.000000
0.875000 -0.075000 0.000000
0.875000 -0.050000 0.000000
0.875000 -0.025000 0.000000
0.875000 0.000000 0.000000
0.900000 -0.075000 0.000000
0.900000 -0.050000 0.000000
0.900000 -0.025000 0.000000
0.900000 0.000000 0.000000
0.925000 -0.075000 0.000000
0.925000 -0.050000 0.000000
0.925000 -0.025000 0.000000
0.925000 0.000000 0.000000
0.950000 -0.075000 0.000000
0.950000 -0.050000 0.000000
0.950000 -0.025000 0.000000
0.950000 0.000000 0.000000
0.975000 -0.075000 0.000000
0.975000 -0.050000 0.000000
0.975000 -0.025000 0.000000
0.975000 0.000000 0.000000
1.000000 -0.075000 0.000000
1.000000 -0.050000 0.000000
1.000000 -0.025000 0.000000
1.000000 0.000000 0.000000
1.025000 -0.075000 0.000000
1.025000 -0.050000 0.000000
1.025000 -0.025000 0.000000
1.025000 0.000000 0.000000
1.025000 0.025000 0.000000
1.025000 0.050000 0.000000
1.025000 0.075000 0.000000
1.025000 0.100000 0.000000
1.025000 0.125000 0.000000
1.025000 0.150000 0.000000
1.025000 0.175000 0.000000
1.025000 0.200000 0.000000
1.025000 0.225000 0.000000
1.025000 0.250000 0.000000
1.025000 0.275000 0.000000
1.025000 0.300000 0.000000
1.025000 0.325000 0.000000
1.025000 0.350000 0.000000
1.025000 0.375000 0.000000
1.025000 0.400000 0.000000
1.025000 0.425000 0.000000
1.025000 0.450000 0.000000
1.025000 0.475000 0.000000
1.025000 0.500000 0.000000
1.025000 0.525000 0.000000
1.025000 0.550000 0.000000
1.025000 0.575000 0.000000
1.025000 0.600000 0.000000
1.050000 -0.075000 0.000000
1.050000 -0.050000 0.000000
1.050000 -0.025000 0.000000
1.050000 0.000000 0.000000
1.050000 0.025000 0.000000
1.050000 0.050000 0.000000
1.050000 0.075000 0.000000
1.050000 0.100000 0.000000
1.050000 0.125000 0.000000
1.050000 0.150000 0.000000
1.050000 0.175000 0.000000
1.050000 0.200000 0.000000
1.050000 0.225000 0.000000
1.050000 0.250000 0.000000
1.050000 0.275000 0.000000
1.050000 0.300000 0.000000
1.050000 0.325000 0.000000
1.050000 0.350000 0.000000
1.050000 0.375000 0.000000
1.050000 0.400000 0.000000
1.050000 0.425000 0.000000
1.050000 0.450000 0.000000
1.050000 0.475000 0.000000
1.050000 0.500000 0.000000
1.050000 0.525000 0.000000
1.050000 0.550000 0.000000
1.050000 0.575000 0.000000
1.050000 0.600000 0.000000
1.075000 -0.075000 0.000000
1.075000 -0.050000 0.000000
1.075000 -0.025000 0.000000
1.075000 0.000000 0.000000
1.075000 0.025000 0.000000
1.075000 0.050000 0.000000
1.075000 0.075000 0.000000
1.075000 0.100000 0.000000
1.075000 0.125000 0.000000
1.075000 0.150000 0.000000
1.075000 0.175000 0.000000
1.075000 0.200000 0.000000
1.075000 0.225000 0.000000
1.075000 0.250000 0.000000
1.075000 0.275000 0.000000
1.075000 0.300000 0.000000
1.075000 0.325000 0.000000
1.075000 0.350000 0.000000
1.075000 0.375000 0.000000
1.075000 0.400000 0.000000
1.075000 0.425000 0.000000
1.075000 0.450000 0.000000
1.075000 0.475000 0.000000
1.075000 0.500000 0.000000
1.075000 0.525000 0.000000
1.075000 0.550000 0.000000
1.075000 0.575000 0.000000
1.075000 0.600000 0.000000
1.100000 -0.075000 0.000000
1.100000 -0.050000 0.000000
1.100000 -0.025000 0.000000
1.100000 0.000000 0.000000
1.100000 0.025000 0.000000
1.100000 0.050000 0.000000
1.100000 0.075000 0.000000
1.100000 0.100000 0.000000
1.100000 0.125000 0.000000
1.100000 0.150000 0.000000
1.100000 0.175000 0.000000
1.100000 0.200000 0.000000
1.100000 0.225000 0.000000
1.100000 0.250000 0.000000
1.100000 0.275000 0.000000
1.100000 0.300000 0.000000
1.100000 0.325000 0.000000
1.100000 0.350000 0.000000
1.100000 0.375000 0.000000
1.100000 0.400000 0.000000
1.100000 0.425000 0.000000
1.100000 0.450000 0.000000
1.100000 0.475000 0.000000
1.100000 0.500000 0.000000
1.100000 0.525000 0.000000
1.100000 0.550000 0.000000
1.100000 0.575000 0.000000
1.100000 0.600000 0.000000
</DataArray>
</Points>
<PointData>
<DataArray NumberOfComponents='1' type='Int32' Name='ParticleType' format='ascii'>
3
3
3
3
3
3
3
3
3
3
3
3
3
3
3
3
3
3
3
3
3
3
3
3
3
3
2
2
3
3
3
3
3
3
3
3
3
3
3
3
3
3
3
3
3
3
3
3
3
3
3
3
3
3
2
2
3
3
2
2
2
2
2
2
2
2
2
2
2
2
2
2
2
2
2
2
2
2
2
2
2
2
2
2
3
3
2
2
2
2
2
2
2
2
2
2
2
2
2
2
2
2
2
2
2
2
2
2
2
2
2
2
3
3
2
2
0
0
0
0
0
0
0
0
0
0
0
0
0
0
0
0
0
0
0
0
3
3
2
2
0
0
0
0
0
0
0
0
0
0
0
0
0
0
0
0
0
0
0
0
3
3
2
2
0
0
0
0
0
0
0
0
0
0
0
0
0
0
0
0
0
0
0
0
3
3
2
2
0
0
0
0
0
0
0
0
0
0
0
0
0
0
0
0
0
0
0
0
3
3
2
2
0
0
0
0
0
0
0
0
0
0
0
0
0
0
0
0
0
0
0
0
3
3
2
2
0
0
0
0
0
0
0
0
0
0
0
0
0
0
0
0
0
0
0
0
3
3
2
2
0
0
0
0
0
0
0
0
0
0
0
0
0
0
0
0
0
0
0
0
3
3
2
2
0
0
0
0
0
0
0
0
0
0
0
0
0
0
0
0
0
0
0
0
3
3
2
2
0
0
0
0
0
0
0
0
0
0
0
0
0
0
0
0
0
0
0
0
3
3
2
2
0
0
0
0
0
0
0
0
0
0
0
0
0
0
0
0
0
0
0
0
3
3
2
2
3
3
2
2
3
3
2
2
3
3
2
2
3
3
2
2
3
3
2
2
3
3
2
2
3
3
2
2
3
3
2
2
3
3
2
2
3
3
2
2
3
3
2
2
3
3
2
2
3
3
2
2
3
3
2
2
3
3
2
2
3
3
2
2
3
3
2
2
3
3
2
2
3
3
2
2
3
3
2
2
3
3
2
2
3
3
2
2
3
3
2
2
3
3
2
2
3
3
2
2
3
3
2
2
3
3
2
2
3
3
2
2
3
3
2
2
3
3
2
2
2
2
2
2
2
2
2
2
2
2
2
2
2
2
2
2
2
2
2
2
2
2
2
2
3
3
2
2
2
2
2
2
2
2
2
2
2
2
2
2
2
2
2
2
2
2
2
2
2
2
2
2
3
3
3
3
3
3
3
3
3
3
3
3
3
3
3
3
3
3
3
3
3
3
3
3
3
3
2
2
3
3
3
3
3
3
3
3
3
3
3
3
3
3
3
3
3
3
3
3
3
3
3
3
3
3
2
2
</DataArray>
<DataArray NumberOfComponents='1' type='Float32' Name='Velocity' format='ascii'>
0.000000
0.000000
0.000000
0.000000
0.000000
0.000000
0.000000
0.000000
0.000000
0.000000
0.000000
0.000000
0.000000
0.000000
0.000000
0.000000
0.000000
0.000000
0.000000
0.000000
0.000000
0.000000
0.000000
0.000000
0.000000
0.000000
0.000000
0.000000
0.000000
0.000000
0.000000
0.000000
0.000000
0.000000
0.000000
0.000000
0.000000
0.000000
0.000000
0.000000
0.000000
0.000000
0.000000
0.000000
0.000000
0.000000
0.000000
0.000000
0.000000
0.000000
0.000000
0.000000
0.000000
0.000000
0.000000
0.000000
0.000000
0.000000
0.000000
0.000000
0.000000
0.000000
0.000000
0.000000
0.000000
0.000000
0.000000
0.000000
0.000000
0.000000
0.000000
0.000000
0.000000
0.000000
0.000000
0.000000
0.000000
0.000000
0.000000
0.000000
0.000000
0.000000
0.000000
0.000000
0.000000
0.000000
0.000000
0.000000
0.000000
0.000000
0.000000
0.000000
0.000000
0.000000
0.000000
0.000000
0.000000
0.000000
0.000000
0.000000
0.000000
0.000000
0.000000
0.000000
0.000000
0.000000
0.000000
0.000000
0.000000
0.000000
0.000000
0.000000
0.000000
0.000000
0.000000
0.000000
0.065221
0.097145
0.153723
0.187136
0.226540
0.286533
0.341873
0.370307
0.410318
0.434712
0.453470
0.506030
0.529315
0.518720
0.590500
0.592853
0.627594
0.628884
0.666905
0.646961
0.000000
0.000000
0.000000
0.000000
0.179543
0.181814
0.210130
0.251928
0.301544
0.312410
0.363217
0.415685
0.437281
0.490636
0.558926
0.577402
0.602575
0.612080
0.643555
0.653336
0.682068
0.707351
0.719620
0.728957
0.000000
0.000000
0.000000
0.000000
0.339475
0.252039
0.273658
0.301702
0.322781
0.369474
0.405579
0.411555
0.495277
0.481393
0.516613
0.533215
0.564671
0.578134
0.614295
0.653183
0.655432
0.660468
0.682013
0.695915
0.000000
0.000000
0.000000
0.000000
0.363771
0.376151
0.388839
0.408898
0.430875
0.446119
0.489604
0.485492
0.526118
0.571482
0.571843
0.639997
0.660788
0.658735
0.685116
0.681150
0.731950
0.751408
0.743002
0.745355
0.000000
0.000000
0.000000
0.000000
0.624491
0.514158
0.528488
0.530051
0.513496
0.534653
0.542622
0.586081
0.576127
0.598410
0.623719
0.607849
0.651258
0.646406
0.692490
0.693982
0.699774
0.725237
0.739659
0.749182
0.000000
0.000000
0.000000
0.000000
0.751257
0.624863
0.656831
0.646585
0.649030
0.656355
0.652870
0.664733
0.691891
0.682630
0.727487
0.722810
0.744547
0.760297
0.754578
0.788329
0.788158
0.785923
0.797267
0.798461
0.000000
0.000000
0.000000
0.000000
0.898358
0.750897
0.832776
0.750075
0.780799
0.782266
0.793146
0.752304
0.767291
0.776271
0.761819
0.768161
0.755378
0.764696
0.774021
0.778553
0.802051
0.806579
0.814253
0.818253
0.000000
0.000000
0.000000
0.000000
1.327874
1.007884
1.033166
0.984558
0.987885
0.897981
0.914250
0.960770
0.891046
0.897708
0.886602
0.874250
0.880185
0.884234
0.877518
0.873526
0.869271
0.867383
0.877242
0.869117
0.000000
0.000000
0.000000
0.000000
1.332136
1.445085
1.031908
1.308049
1.085592
1.187172
1.080115
1.029925
1.026967
0.981955
0.956407
0.939826
0.914383
0.895813
0.906751
0.896292
0.905745
0.899851
0.901490
0.903765
0.000000
0.000000
0.000000
0.000000
2.041515
1.546725
1.707348
1.589480
1.533854
1.400131
1.328721
1.254779
1.185338
1.143878
1.100323
1.067537
1.044513
1.009357
0.999186
0.980834
0.977957
0.969072
0.968151
0.966114
0.000000
0.000000
0.000000
0.000000
0.000000
0.000000
0.000000
0.000000
0.000000
0.000000
0.000000
0.000000
0.000000
0.000000
0.000000
0.000000
0.000000
0.000000
0.000000
0.000000
0.000000
0.000000
0.000000
0.000000
0.000000
0.000000
0.000000
0.000000
0.000000
0.000000
0.000000
0.000000
0.000000
0.000000
0.000000
0.000000
0.000000
0.000000
0.000000
0.000000
0.000000
0.000000
0.000000
0.000000
0.000000
0.000000
0.000000
0.000000
0.000000
0.000000
0.000000
0.000000
0.000000
0.000000
0.000000
0.000000
0.000000
0.000000
0.000000
0.000000
0.000000
0.000000
0.000000
0.000000
0.000000
0.000000
0.000000
0.000000
0.000000
0.000000
0.000000
0.000000
0.000000
0.000000
0.000000
0.000000
0.000000
0.000000
0.000000
0.000000
0.000000
0.000000
0.000000
0.000000
0.000000
0.000000
0.000000
0.000000
0.000000
0.000000
0.000000
0.000000
0.000000
0.000000
0.000000
0.000000
0.000000
0.000000
0.000000
0.000000
0.000000
0.000000
0.000000
0.000000
0.000000
0.000000
0.000000
0.000000
0.000000
0.000000
0.000000
0.000000
0.000000
0.000000
0.000000
0.000000
0.000000
0.000000
0.000000
0.000000
0.000000
0.000000
0.000000
0.000000
0.000000
0.000000
0.000000
0.000000
0.000000
0.000000
0.000000
0.000000
0.000000
0.000000
0.000000
0.000000
0.000000
0.000000
0.000000
0.000000
0.000000
0.000000
0.000000
0.000000
0.000000
0.000000
0.000000
0.000000
0.000000
0.000000
0.000000
0.000000
0.000000
0.000000
0.000000
0.000000
0.000000
0.000000
0.000000
0.000000
0.000000
0.000000
0.000000
0.000000
0.000000
0.000000
0.000000
0.000000
0.000000
0.000000
0.000000
0.000000
0.000000
0.000000
0.000000
0.000000
0.000000
0.000000
0.000000
0.000000
0.000000
0.000000
0.000000
0.000000
0.000000
0.000000
0.000000
0.000000
0.000000
0.000000
0.000000
0.000000
0.000000
0.000000
0.000000
0.000000
0.000000
0.000000
0.000000
0.000000
0.000000
0.000000
0.000000
0.000000
0.000000
0.000000
0.000000
0.000000
0.000000
0.000000
0.000000
0.000000
0.000000
0.000000
0.000000
0.000000
0.000000
0.000000
0.000000
0.000000
0.000000
0.000000
0.000000
0.000000
0.000000
0.000000
0.000000
0.000000
0.000000
0.000000
0.000000
0.000000
</DataArray>
<DataArray NumberOfComponents='1' type='Float32' Name='pressure' format='ascii'>
0.000000
0.000000
0.000000
0.000000
0.000000
0.000000
0.000000
0.000000
0.000000
0.000000
0.000000
0.000000
0.000000
0.000000
0.000000
0.000000
0.000000
0.000000
0.000000
0.000000
0.000000
0.000000
0.000000
0.000000
0.000000
0.000000
0.000000
0.000000
0.000000
0.000000
0.000000
0.000000
0.000000
0.000000
0.000000
0.000000
0.000000
0.000000
0.000000
0.000000
0.000000
0.000000
0.000000
0.000000
0.000000
0.000000
0.000000
0.000000
0.000000
0.000000
0.000000
0.000000
0.000000
0.000000
0.000000
0.000000
0.000000
0.000000
2074.690674
1796.377808
854.431274
598.990479
233.103607
236.366302
326.820831
0.000000
379.894043
250.576141
527.484741
365.398590
234.061874
0.000000
0.000000
0.000000
0.000000
0.000000
0.000000
0.000000
0.000000
0.000000
0.000000
0.000000
0.000000
0.000000
0.000000
0.000000
2307.908936
2198.088623
1462.540894
1293.386719
1104.133057
1387.405518
1279.438599
787.401062
772.084167
484.504181
1028.334106
1059.037598
971.575073
656.053711
364.258453
299.604065
156.849075
141.501907
139.721878
0.000000
0.000000
0.000000
0.000000
0.000000
0.000000
0.000000
0.000000
0.000000
3060.966797
3032.162354
1783.668579
2365.610352
1709.028076
2103.098633
1436.709473
1943.281616
1505.431885
1770.900269
1542.067139
1471.185059
1095.108398
1080.551880
959.010315
688.063293
594.548828
624.000305
722.295776
299.979858
650.856384
0.000000
0.000000
0.000000
2868.853760
1914.394409
1524.184570
1732.772461
1358.255737
1438.947876
1424.089355
1091.352173
1143.825439
1172.356934
751.069641
767.301880
1077.445312
731.893738
716.441162
720.208252
486.416473
445.582855
597.740662
229.083588
181.250931
0.000000
0.000000
0.000000
2927.352051
1957.879395
1850.852783
1780.544556
1668.112061
1620.866455
1432.095459
1613.138550
1347.753174
1287.747192
1445.115723
1325.914062
1238.971802
1082.830322
929.810303
945.946350
755.294434
496.095886
581.471436
348.317535
486.871307
0.000000
0.000000
0.000000
2809.812988
2486.624023
1005.182251
1616.578125
1307.318359
1369.210571
1075.110352
1212.139648
1181.049683
1009.733582
1000.948547
829.059570
663.410522
611.117554
609.151367
523.824585
671.883118
463.150421
244.933945
72.507652
222.017456
0.000000
0.000000
0.000000
2758.200684
2297.026611
897.363220
1634.738281
1090.810669
1524.634521
1085.182373
1242.748779
1189.726318
1121.795166
964.354309
1102.232300
1169.092285
1008.705139
1094.536621
735.132935
663.516174
531.087952
632.088867
302.500641
181.263046
0.000000
0.000000
0.000000
2623.800293
1402.048096
1484.950684
810.133972
1069.400269
1191.200439
1160.147339
1012.327576
869.399048
943.500000
859.575806
752.300659
635.839417
405.062866
429.186432
415.135254
337.997406
185.481445
275.981995
121.492447
219.897842
0.000000
0.000000
0.000000
2525.359863
1253.339478
397.082153
979.440369
1726.907104
569.682434
830.611023
957.773071
1078.025635
789.766418
795.590393
730.352051
737.133118
791.908325
783.803162
790.211304
592.742737
471.818817
344.796112
126.684692
215.177719
0.000000
0.000000
0.000000
2882.643066
1457.263916
0.000000
898.478760
0.000000
972.845398
987.346313
285.297424
414.440674
633.337830
380.424744
471.185425
404.058624
427.483704
141.285904
151.119858
133.586105
155.647842
261.782257
149.305191
115.217667
0.000000
0.000000
0.000000
3255.829102
2536.804932
657.355896
881.245911
0.000000
569.927856
0.000000
547.137085
463.609619
397.297791
535.717957
358.021210
351.436035
396.109283
416.582489
477.946564
336.002594
249.850128
184.811890
89.048729
101.268028
0.000000
0.000000
0.000000
2709.007324
946.845459
0.000000
0.000000
0.000000
0.000000
0.000000
0.000000
0.000000
0.000000
0.000000
0.000000
0.000000
0.000000
0.000000
0.000000
0.000000
0.000000
0.000000
0.000000
0.000000
0.000000
0.000000
0.000000
2816.036621
647.916626
0.000000
0.000000
2973.961670
2092.490479
0.000000
0.000000
1709.874146
1425.064575
0.000000
0.000000
1089.940918
0.000000
0.000000
0.000000
0.000000
0.000000
0.000000
0.000000
0.000000
0.000000
0.000000
0.000000
0.000000
0.000000
0.000000
0.000000
0.000000
0.000000
0.000000
0.000000
0.000000
0.000000
0.000000
0.000000
0.000000
0.000000
0.000000
0.000000
0.000000
0.000000
0.000000
0.000000
0.000000
0.000000
0.000000
0.000000
0.000000
0.000000
0.000000
0.000000
0.000000
0.000000
0.000000
0.000000
0.000000
0.000000
0.000000
0.000000
0.000000
0.000000
0.000000
0.000000
0.000000
0.000000
0.000000
0.000000
0.000000
0.000000
0.000000
0.000000
0.000000
0.000000
0.000000
0.000000
0.000000
0.000000
0.000000
0.000000
0.000000
0.000000
0.000000
0.000000
0.000000
0.000000
0.000000
0.000000
0.000000
0.000000
0.000000
0.000000
0.000000
0.000000
0.000000
0.000000
0.000000
0.000000
0.000000
0.000000
0.000000
0.000000
0.000000
0.000000
0.000000
0.000000
0.000000
0.000000
0.000000
0.000000
0.000000
0.000000
0.000000
0.000000
0.000000
0.000000
0.000000
0.000000
0.000000
0.000000
0.000000
0.000000
0.000000
0.000000
0.000000
0.000000
0.000000
0.000000
0.000000
0.000000
0.000000
0.000000
0.000000
0.000000
0.000000
0.000000
0.000000
0.000000
0.000000
0.000000
0.000000
0.000000
0.000000
0.000000
0.000000
0.000000
0.000000
0.000000
0.000000
0.000000
0.000000
0.000000
0.000000
0.000000
0.000000
0.000000
0.000000
0.000000
0.000000
0.000000
0.000000
0.000000
0.000000
0.000000
0.000000
0.000000
0.000000
0.000000
0.000000
0.000000
0.000000
0.000000
0.000000
0.000000
0.000000
0.000000
0.000000
0.000000
0.000000
0.000000
0.000000
0.000000
0.000000
0.000000
0.000000
0.000000
0.000000
0.000000
0.000000
0.000000
0.000000
0.000000
0.000000
0.000000
0.000000
0.000000
0.000000
0.000000
0.000000
0.000000
0.000000
0.000000
0.000000
0.000000
0.000000
0.000000
0.000000
0.000000
0.000000
0.000000
0.000000
0.000000
0.000000
0.000000
0.000000
0.000000
0.000000
0.000000
0.000000
0.000000
0.000000
0.000000
0.000000
0.000000
0.000000
0.000000
0.000000
0.000000
0.000000
0.000000
</DataArray>
</PointData>
<Cells>
<DataArray type='Int32' Name='connectivity' format='ascii'>
0
1
2
3
4
5
6
7
8
9
10
11
12
13
14
15
16
17
18
19
20
21
22
23
24
25
26
27
28
29
30
31
32
33
34
35
36
37
38
39
40
41
42
43
44
45
46
47
48
49
50
51
52
53
54
55
56
57
58
59
60
61
62
63
64
65
66
67
68
69
70
71
72
73
74
75
76
77
78
79
80
81
82
83
84
85
86
87
88
89
90
91
92
93
94
95
96
97
98
99
100
101
102
103
104
105
106
107
108
109
110
111
112
113
114
115
116
117
118
119
120
121
122
123
124
125
126
127
128
129
130
131
132
133
134
135
136
137
138
139
140
141
142
143
144
145
146
147
148
149
150
151
152
153
154
155
156
157
158
159
160
161
162
163
164
165
166
167
168
169
170
171
172
173
174
175
176
177
178
179
180
181
182
183
184
185
186
187
188
189
190
191
192
193
194
195
196
197
198
199
200
201
202
203
204
205
206
207
208
209
210
211
212
213
214
215
216
217
218
219
220
221
222
223
224
225
226
227
228
229
230
231
232
233
234
235
236
237
238
239
240
241
242
243
244
245
246
247
248
249
250
251
252
253
254
255
256
257
258
259
260
261
262
263
264
265
266
267
268
269
270
271
272
273
274
275
276
277
278
279
280
281
282
283
284
285
286
287
288
289
290
291
292
293
294
295
296
297
298
299
300