<?xml version='1.0' encoding='UTF-8'?>
<VTKFile xmlns='VTK' byte_order='LittleEndian' version='0.1' type='UnstructuredGrid'>
<UnstructuredGrid>
<Piece NumberOfCells='584' NumberOfPoints='584'>
<Points>
<DataArray NumberOfComponents='3' type='Float32' Name='Position' format='ascii'>
-0.075000 -0.075000 0.000000
-0.075000 -0.050000 0.000000
-0.075000 -0.025000 0.000000
-0.075000 0.000000 0.000000
-0.075000 0.025000 0.000000
-0.075000 0.050000 0.000000
-0.075000 0.075000 0.000000
-0.075000 0.100000 0.000000
-0.075000 0.125000 0.000000
-0.075000 0.150000 0.000000
-0.075000 0.175000 0.000000
-0.075000 0.200000 0.000000
-0.075000 0.225000 0.000000
-0.075000 0.250000 0.000000
-0.075000 0.275000 0.000000
-0.075000 0.300000 0.000000
-0.075000 0.325000 0.000000
-0.075000 0.350000 0.000000
-0.075000 0.375000 0.000000
-0.075000 0.400000 0.000000
-0.075000 0.425000 0.000000
-0.075000 0.450000 0.000000
-0.075000 0.475000 0.000000
-0.075000 0.500000 0.000000
-0.075000 0.525000 0.000000
-0.075000 0.550000 0.000000
-0.075000 0.575000 0.000000
-0.075000 0.600000 0.000000
-0.050000 -0.075000 0.000000
-0.050000 -0.050000 0.000000
-0.050000 -0.025000 0.000000
-0.050000 0.000000 0.000000
-0.050000 0.025000 0.000000
-0.050000 0.050000 0.000000
-0.050000 0.075000 0.000000
-0.050000 0.100000 0.000000
-0.050000 0.125000 0.000000
-0.050000 0.150000 0.000000
-0.050000 0.175000 0.000000
-0.050000 0.200000 0.000000
-0.050000 0.225000 0.000000
-0.050000 0.250000 0.000000
-0.050000 0.275000 0.000000
-0.050000 0.300000 0.000000
-0.050000 0.325000 0.000000
-0.050000 0.350000 0.000000
-0.050000 0.375000 0.000000
-0.050000 0.400000 0.000000
-0.050000 0.425000 0.000000
-0.050000 0.450000 0.000000
-0.050000 0.475000 0.000000
-0.050000 0.500000 0.000000
-0.050000 0.525000 0.000000
-0.050000 0.550000 0.000000
-0.050000 0.575000 0.000000
-0.050000 0.600000 0.000000
-0.025000 -0.075000 0.000000
-0.025000 -0.050000 0.000000
-0.025000 -0.025000 0.000000
-0.025000 0.000000 0.000000
-0.025000 0.025000 0.000000
-0.025000 0.050000 0.000000
-0.025000 0.075000 0.000000
-0.025000 0.100000 0.000000
-0.025000 0.125000 0.000000
-0.025000 0.150000 0.000000
-0.025000 0.175000 0.000000
-0.025000 0.200000 0.000000
-0.025000 0.225000 0.000000
-0.025000 0.250000 0.000000
-0.025000 0.275000 0.000000
-0.025000 0.300000 0.000000
-0.025000 0.325000 0.000000
-0.025000 0.350000 0.000000
-0.025000 0.375000 0.000000
-0.025000 0.400000 0.000000
-0.025000 0.425000 0.000000
-0.025000 0.450000 0.000000
-0.025000 0.475000 0.000000
-0.025000 0.500000 0.000000
-0.025000 0.525000 0.000000
-0.025000 0.550000 0.000000
-0.025000 0.575000 0.000000
-0.025000 0.600000 0.000000
0.000000 -0.075000 0.000000
0.000000 -0.050000 0.000000
0.000000 -0.025000 0.000000
0.000000 0.000000 0.000000
0.000000 0.025000 0.000000
0.000000 0.050000 0.000000
0.000000 0.075000 0.000000
0.000000 0.100000 0.000000
0.000000 0.125000 0.000000
0.000000 0.150000 0.000000
0.000000 0.175000 0.000000
0.000000 0.200000 0.000000
0.000000 0.225000 0.000000
0.000000 0.250000 0.000000
0.000000 0.275000 0.000000
0.000000 0.300000 0.000000
0.000000 0.325000 0.000000
0.000000 0.350000 0.000000
0.000000 0.375000 0.000000
0.000000 0.400000 0.000000
0.000000 0.425000 0.000000
0.000000 0.450000 0.000000
0.000000 0.475000 0.000000
0.000000 0.500000 0.000000
0.000000 0.525000 0.000000
0.000000 0.550000 0.000000
0.000000 0.575000 0.000000
0.000000 0.600000 0.000000
0.025000 -0.075000 0.000000
0.025000 -0.050000 0.000000
0.025000 -0.025000 0.000000
0.025000 0.000000 0.000000
0.289359 0.023419 0.000000
0.257330 0.021643 0.000000
0.260075 0.053444 0.000000
0.185672 0.021630 0.000000
0.371112 0.022626 0.000000
0.071891 0.022364 0.000000
0.472991 0.027681 0.000000
0.316516 0.023376 0.000000
0.219130 0.022839 0.000000
0.148202 0.051417 0.000000
0.303094 0.045264 0.000000
0.187442 0.042594 0.000000
0.149132 0.024461 0.000000
0.034182 0.020685 0.000000
0.018406 0.047003 0.000000
0.043281 0.040239 0.000000
0.106073 0.023035 0.000000
0.084709 0.041592 0.000000
0.088021 0.061485 0.000000
0.127108 0.028972 0.000000
0.050000 -0.075000 0.000000
0.050000 -0.050000 0.000000
0.050000 -0.025000 0.000000
0.050000 0.000000 0.000000
0.353114 0.027536 0.000000
0.569825 0.085721 0.000000
0.543826 0.053871 0.000000
0.434337 0.173896 0.000000
0.504684 0.148382 0.000000
0.650895 0.040141 0.000000
0.525032 0.078520 0.000000
0.758686 0.047812 0.000000
0.411385 0.020568 0.000000
0.412861 0.068975 0.000000
0.425824 0.118155 0.000000
0.469899 0.050364 0.000000
0.062514 0.047291 0.000000
0.449169 0.074318 0.000000
0.266678 0.041936 0.000000
0.318936 0.052296 0.000000
0.209100 0.044850 0.000000
0.335598 0.041175 0.000000
0.119470 0.053048 0.000000
0.164196 0.046037 0.000000
0.075000 -0.075000 0.000000
0.075000 -0.050000 0.000000
0.075000 -0.025000 0.000000
0.075000 0.000000 0.000000
0.393177 0.058058 0.000000
0.547887 0.108650 0.000000
0.558099 0.034627 0.000000
0.514984 0.030201 0.000000
0.815261 0.107397 0.000000
0.840788 0.025154 0.000000
0.833157 0.062217 0.000000
0.300592 0.143621 0.000000
0.792419 0.072067 0.000000
0.812759 0.059449 0.000000
0.656942 0.025133 0.000000
0.528388 0.041043 0.000000
0.365567 0.090668 0.000000
0.399404 0.040654 0.000000
0.431630 0.035901 0.000000
0.371252 0.063000 0.000000
0.357445 0.060287 0.000000
0.417461 0.085640 0.000000
0.442761 0.126132 0.000000
0.233921 0.040247 0.000000
0.100000 -0.075000 0.000000
0.100000 -0.050000 0.000000
0.100000 -0.025000 0.000000
0.100000 0.000000 0.000000
0.703314 0.034188 0.000000
0.614180 0.018428 0.000000
0.756036 0.092315 0.000000
0.907030 0.021306 0.000000
0.436478 0.056147 0.000000
0.886174 0.035389 0.000000
0.875804 0.077965 0.000000
0.715839 0.157973 0.000000
0.863298 0.026053 0.000000
0.854955 0.048685 0.000000
0.684806 0.021417 0.000000
0.666897 0.055538 0.000000
0.820931 0.089909 0.000000
0.798664 0.023340 0.000000
0.581121 0.075132 0.000000
0.450044 0.022401 0.000000
0.723383 0.023413 0.000000
0.770838 0.140685 0.000000
0.602438 0.039905 0.000000
0.489779 0.059823 0.000000
0.125000 -0.075000 0.000000
0.125000 -0.050000 0.000000
0.125000 -0.025000 0.000000
0.125000 0.000000 0.000000
0.912457 0.040777 0.000000
0.909491 0.114888 0.000000
1.004009 0.137208 0.000000
0.944311 0.022851 0.000000
0.930182 0.186031 0.000000
0.765661 0.021376 0.000000
0.670316 0.099606 0.000000
0.871630 0.134985 0.000000
0.930885 0.097538 0.000000
0.878389 0.113198 0.000000
0.951261 0.085947 0.000000
0.791373 0.194505 0.000000
0.710631 0.052998 0.000000
0.772456 0.065581 0.000000
0.600176 0.071228 0.000000
0.787990 0.043350 0.000000
0.785011 0.131226 0.000000
0.516465 0.087606 0.000000
0.738579 0.087423 0.000000
0.482001 0.112964 0.000000
0.150000 -0.075000 0.000000
0.150000 -0.050000 0.000000
0.150000 -0.025000 0.000000
0.150000 0.000000 0.000000
0.712369 0.115396 0.000000
0.997529 0.055033 0.000000
0.950017 0.288231 0.000000
0.631427 0.068188 0.000000
0.977523 0.066722 0.000000
0.508992 0.127582 0.000000
0.979822 0.113878 0.000000
0.770395 0.103329 0.000000
1.002022 0.105669 0.000000
0.956317 0.142145 0.000000
0.965948 0.039887 0.000000
0.879267 0.057374 0.000000
0.935997 0.042714 0.000000
0.952190 0.063093 0.000000
0.895199 0.095447 0.000000
0.843139 0.121260 0.000000
0.818740 0.031123 0.000000
0.857996 0.096905 0.000000
0.847555 0.080550 0.000000
0.677912 0.072283 0.000000
0.175000 -0.075000 0.000000
0.175000 -0.050000 0.000000
0.175000 -0.025000 0.000000
0.175000 0.000000 0.000000
0.394434 0.119909 0.000000
0.952089 0.165096 0.000000
0.970838 0.180345 0.000000
0.988567 0.160854 0.000000
0.979202 0.137337 0.000000
0.580774 0.142270 0.000000
0.978832 0.024695 0.000000
0.748734 0.160892 0.000000
0.618417 0.082556 0.000000
1.002457 0.030386 0.000000
0.857528 0.162165 0.000000
0.926144 0.157307 0.000000
0.765095 0.169952 0.000000
0.946255 0.118944 0.000000
0.972586 0.094719 0.000000
0.657537 0.079738 0.000000
1.000757 0.078080 0.000000
0.810312 0.131043 0.000000
0.747217 0.140775 0.000000
0.797229 0.178000 0.000000
0.200000 -0.075000 0.000000
0.200000 -0.050000 0.000000
0.200000 -0.025000 0.000000
0.200000 0.000000 0.000000
0.752354 0.262271 0.000000
0.517298 0.157881 0.000000
0.672890 0.138381 0.000000
0.957195 0.220215 0.000000
0.665796 0.116384 0.000000
0.806990 0.150940 0.000000
0.851702 0.184548 0.000000
1.002826 0.295935 0.000000
0.838386 0.136470 0.000000
0.497649 0.114156 0.000000
1.002778 0.179732 0.000000
0.924684 0.074042 0.000000
0.326451 0.144783 0.000000
0.711664 0.091535 0.000000
0.884311 0.155343 0.000000
0.608872 0.114115 0.000000
0.910539 0.166087 0.000000
0.732100 0.127204 0.000000
0.931642 0.131336 0.000000
0.906853 0.071653 0.000000
0.225000 -0.075000 0.000000
0.225000 -0.050000 0.000000
0.225000 -0.025000 0.000000
0.225000 0.000000 0.000000
0.719967 0.200216 0.000000
0.940803 1.072112 0.000000
0.893684 0.194961 0.000000
0.464557 0.107547 0.000000
0.446890 0.100266 0.000000
0.329912 0.163356 0.000000
0.841626 0.173622 0.000000
0.985332 0.190554 0.000000
0.902884 0.209378 0.000000
0.628282 0.101943 0.000000
0.945184 0.195825 0.000000
0.453859 0.146460 0.000000
0.564903 0.051690 0.000000
0.789212 0.097890 0.000000
0.536352 0.116999 0.000000
0.710412 0.129823 0.000000
0.730062 0.065643 0.000000
0.458381 0.168212 0.000000
0.568209 0.117730 0.000000
0.607570 0.136834 0.000000
0.250000 -0.075000 0.000000
0.250000 -0.050000 0.000000
0.250000 -0.025000 0.000000
0.250000 0.000000 0.000000
0.937313 0.630767 0.000000
0.718211 0.561585 0.000000
0.702828 0.075549 0.000000
0.742244 0.184234 0.000000
0.520505 0.712402 0.000000
0.812975 0.169625 0.000000
0.559960 0.486881 0.000000
0.661886 0.262852 0.000000
0.496844 0.026088 0.000000
0.880557 0.177906 0.000000
0.468221 0.076951 0.000000
0.411999 0.205359 0.000000
0.646035 0.116109 0.000000
0.744351 0.035673 0.000000
0.620541 0.046106 0.000000
0.686566 0.168525 0.000000
0.581028 0.027465 0.000000
0.896183 0.132191 0.000000
0.409184 0.189748 0.000000
0.919848 0.211451 0.000000
0.275000 -0.075000 0.000000
0.275000 -0.050000 0.000000
0.275000 -0.025000 0.000000
0.275000 0.000000 0.000000
0.300000 -0.075000 0.000000
0.300000 -0.050000 0.000000
0.300000 -0.025000 0.000000
0.300000 0.000000 0.000000
0.325000 -0.075000 0.000000
0.325000 -0.050000 0.000000
0.325000 -0.025000 0.000000
0.325000 0.000000 0.000000
0.350000 -0.075000 0.000000
0.350000 -0.050000 0.000000
0.350000 -0.025000 0.000000
0.350000 0.000000 0.000000
0.375000 -0.075000 0.000000
0.375000 -0.050000 0.000000
0.375000 -0.025000 0.000000
0.375000 0.000000 0.000000
0.400000 -0.075000 0.000000
0.400000 -0.050000 0.000000
0.400000 -0.025000 0.000000
0.400000 0.000000 0.000000
0.425000 -0.075000 0.000000
0.425000 -0.050000 0.000000
0.425000 -0.025000 0.000000
0.425000 0.000000 0.000000
0.450000 -0.075000 0.000000
0.450000 -0.050000 0.000000
0.450000 -0.025000 0.000000
0.450000 0.000000 0.000000
0.475000 -0.075000 0.000000
0.475000 -0.050000 0.000000
0.475000 -0.025000 0.000000
0.475000 0.000000 0.000000
0.500000 -0.075000 0.000000
0.500000 -0.050000 0.000000
0.500000 -0.025000 0.000000
0.500000 0.000000 0.000000
0.525000 -0.075000 0.000000
0.525000 -0.050000 0.000000
0.525000 -0.025000 0.000000
0.525000 0.000000 0.000000
0.550000 -0.075000 0.000000
0.550000 -0.050000 0.000000
0.550000 -0.025000 0.000000
0.550000 0.000000 0.000000
0.575000 -0.075000 0.000000
0.575000 -0.050000 0.000000
0.575000 -0.025000 0.000000
0.575000 0.000000 0.000000
0.600000 -0.075000 0.000000
0.600000 -0.050000 0.000000
0.600000 -0.025000 0.000000
0.600000 0.000000 0.000000
0.625000 -0.075000 0.000000
0.625000 -0.050000 0.000000
0.625000 -0.025000 0.000000
0.625000 0.000000 0.000000
0.650000 -0.075000 0.000000
0.650000 -0.050000 0.000000
0.650000 -0.025000 0.000000
0.650000 0.000000 0.000000
0.675000 -0.075000 0.000000
0.675000 -0.050000 0.000000
0.675000 -0.025000 0.000000
0.675000 0.000000 0.000000
0.700000 -0.075000 0.000000
0.700000 -0.050000 0.000000
0.700000 -0.025000 0.000000
0.700000 0.000000 0.000000
0.725000 -0.075000 0.000000
0.725000 -0.050000 0.000000
0.725000 -0.025000 0.000000
0.725000 0.000000 0.000000
0.750000 -0.075000 0.000000
0.750000 -0.050000 0.000000
0.750000 -0.025000 0.000000
0.750000 0.000000 0.000000
0.775000 -0.075000 0.000000
0.775000 -0.050000 0.000000
0.775000 -0.025000 0.000000
0.775000 0.000000 0.000000
0.800000 -0.075000 0.000000
0.800000 -0.050000 0.000000
0.800000 -0.025000 0.000000
0.800000 0.000000 0.000000
0.825000 -0.075000 0.000000
0.825000 -0.050000 0.000000
0.825000 -0.025000 0.000000
0.825000 0.000000 0.000000
0.850000 -0.075000 0.000000
0.850000 -0.050000 0.000000
0.850000 -0.025000 0.000000
0.850000 0.000000 0.000000
0.875000 -0.075000 0.000000
0.875000 -0.050000 0.000000
0.875000 -0.025000 0.000000
0.875000 0.000000 0.000000
0.900000 -0.075000 0.000000
0.900000 -0.050000 0.000000
0.900000 -0.025000 0.000000
0.900000 0.000000 0.000000
0.925000 -0.075000 0.000000
0.925000 -0.050000 0.000000
0.925000 -0.025000 0.000000
0.925000 0.000000 0.000000
0.950000 -0.075000 0.000000
0.950000 -0.050000 0.000000
0.950000 -0.025000 0.000000
0.950000 0.000000 0.000000
0.975000 -0.075000 0.000000
0.975000 -0.050000 0.000000
0.975000 -0.025000 0.000000
0.975000 0.000000 0.000000
1.000000 -0.075000 0.000000
1.000000 -0.050000 0.000000
1.000000 -0.025000 0.000000
1.000000 0.000000 0.000000
1.025000 -0.075000 0.000000
1.025000 -0.050000 0.000000
1.025000 -0.025000 0.000000
1.025000 0.000000 0.000000
1.025000 0.025000 0.000000
1.025000 0.050000 0.000000
1.025000 0.075000 0.000000
1.025000 0.100000 0.000000
1.025000 0.125000 0.000000
1.025000 0.150000 0.000000
1.025000 0.175000 0.000000
1.025000 0.200000 0.000000
1.025000 0.225000 0.000000
1.025000 0.250000 0.000000
1.025000 0.275000 0.000000
1.025000 0.300000 0.000000
1.025000 0.325000 0.000000
1.025000 0.350000 0.000000
1.025000 0.375000 0.000000
1.025000 0.400000 0.000000
1.025000 0.425000 0.000000
1.025000 0.450000 0.000000
1.025000 0.475000 0.000000
1.025000 0.500000 0.000000
1.025000 0.525000 0.000000
1.025000 0.550000 0.000000
1.025000 0.575000 0.000000
1.025000 0.600000 0.000000
1.050000 -0.075000 0.000000
1.050000 -0.050000 0.000000
1.050000 -0.025000 0.000000
1.050000 0.000000 0.000000
1.050000 0.025000 0.000000
1.050000 0.050000 0.000000
1.050000 0.075000 0.000000
1.050000 0.100000 0.000000
1.050000 0.125000 0.000000
1.050000 0.150000 0.000000
1.050000 0.175000 0.000000
1.050000 0.200000 0.000000
1.050000 0.225000 0.000000
1.050000 0.250000 0.000000
1.050000 0.275000 0.000000
1.050000 0.300000 0.000000
1.050000 0.325000 0.000000
1.050000 0.350000 0.000000
1.050000 0.375000 0.000000
1.050000 0.400000 0.000000
1.050000 0.425000 0.000000
1.050000 0.450000 0.000000
1.050000 0.475000 0.000000
1.050000 0.500000 0.000000
1.050000 0.525000 0.000000
1.050000 0.550000 0.000000
1.050000 0.575000 0.000000
1.050000 0.600000 0.000000
1.075000 -0.075000 0.000000
1.075000 -0.050000 0.000000
1.075000 -0.025000 0.000000
1.075000 0.000000 0.000000
1.075000 0.025000 0.000000
1.075000 0.050000 0.000000
1.075000 0.075000 0.000000
1.075000 0.100000 0.000000
1.075000 0.125000 0.000000
1.075000 0.150000 0.000000
1.075000 0.175000 0.000000
1.075000 0.200000 0.000000
1.075000 0.225000 0.000000
1.075000 0.250000 0.000000
1.075000 0.275000 0.000000
1.075000 0.300000 0.000000
1.075000 0.325000 0.000000
1.075000 0.350000 0.000000
1.075000 0.375000 0.000000
1.075000 0.400000 0.000000
1.075000 0.425000 0.000000
1.075000 0.450000 0.000000
1.075000 0.475000 0.000000
1.075000 0.500000 0.000000
1.075000 0.525000 0.000000
1.075000 0.550000 0.000000
1.075000 0.575000 0.000000
1.075000 0.600000 0.000000
1.100000 -0.075000 0.000000
1.100000 -0.050000 0.000000
1.100000 -0.025000 0.000000
1.100000 0.000000 0.000000
1.100000 0.025000 0.000000
1.100000 0.050000 0.000000
1.100000 0.075000 0.000000
1.100000 0.100000 0.000000
1.100000 0.125000 0.000000
1.100000 0.150000 0.000000
1.100000 0.175000 0.000000
1.100000 0.200000 0.000000
1.100000 0.225000 0.000000
1.100000 0.250000 0.000000
1.100000 0.275000 0.000000
1.100000 0.300000 0.000000
1.100000 0.325000 0.000000
1.100000 0.350000 0.000000
1.100000 0.375000 0.000000
1.100000 0.400000 0.000000
1.100000 0.425000 0.000000
1.100000 0.450000 0.000000
1.100000 0.475000 0.000000
1.100000 0.500000 0.000000
1.100000 0.525000 0.000000
1.100000 0.550000 0.000000
1.100000 0.575000 0.000000
1.100000 0.600000 0.000000
</DataArray>
</Points>
<PointData>
<DataArray NumberOfComponents='1' type='Int32' Name='ParticleType' format='ascii'>
3
3
3
3
3
3
3
3
3
3
3
3
3
3
3
3
3
3
3
3
3
3
3
3
3
3
2
2
3
3
3
3
3
3
3
3
3
3
3
3
3
3
3
3
3
3
3
3
3
3
3
3
3
3
2
2
3
3
2
2
2
2
2
2
2
2
2
2
2
2
2
2
2
2
2
2
2
2
2
2
2
2
2
2
3
3
2
2
2
2
2
2
2
2
2
2
2
2
2
2
2
2
2
2
2
2
2
2
2
2
2
2
3
3
2
2
0
0
0
0
0
0
0
0
0
0
0
0
0
0
0
0
0
0
0
0
3
3
2
2
0
0
0
0
0
0
0
0
0
0
0
0
0
0
0
0
0
0
0
0
3
3
2
2
0
0
0
0
0
0
0
0
0
0
0
0
0
0
0
0
0
0
0
0
3
3
2
2
0
0
0
0
0
0
0
0
0
0
0
0
0
0
0
0
0
0
0
0
3
3
2
2
0
0
0
0
0
0
0
0
0
0
0
0
0
0
0
0
0
0
0
0
3
3
2
2
0
0
0
0
0
0
0
0
0
0
0
0
0
0
0
0
0
0
0
0
3
3
2
2
0
0
0
0
0
0
0
0
0
0
0
0
0
0
0
0
0
0
0
0
3
3
2
2
0
0
0
0
0
0
0
0
0
0
0
0
0
0
0
0
0
0
0
0
3
3
2
2
0
0
0
0
0
0
0
0
0
0
0
0
0
0
0
0
0
0
0
0
3
3
2
2
0
0
0
0
0
0
0
0
0
0
0
0
0
0
0
0
0
0
0
0
3
3
2
2
3
3
2
2
3
3
2
2
3
3
2
2
3
3
2
2
3
3
2
2
3
3
2
2
3
3
2
2
3
3
2
2
3
3
2
2
3
3
2
2
3
3
2
2
3
3
2
2
3
3
2
2
3
3
2
2
3
3
2
2
3
3
2
2
3
3
2
2
3
3
2
2
3
3
2
2
3
3
2
2
3
3
2
2
3
3
2
2
3
3
2
2
3
3
2
2
3
3
2
2
3
3
2
2
3
3
2
2
3
3
2
2
3
3
2
2
3
3
2
2
2
2
2
2
2
2
2
2
2
2
2
2
2
2
2
2
2
2
2
2
2
2
2
2
3
3
2
2
2
2
2
2
2
2
2
2
2
2
2
2
2
2
2
2
2
2
2
2
2
2
2
2
3
3
3
3
3
3
3
3
3
3
3
3
3
3
3
3
3
3
3
3
3
3
3
3
3
3
2
2
3
3
3
3
3
3
3
3
3
3
3
3
3
3
3
3
3
3
3
3
3
3
3
3
3
3
2
2
</DataArray>
<DataArray NumberOfComponents='1' type='Float32' Name='Velocity' format='ascii'>
0.000000
0.000000
0.000000
0.000000
0.000000
0.000000
0.000000
0.000000
0.000000
0.000000
0.000000
0.000000
0.000000
0.000000
0.000000
0.000000
0.000000
0.000000
0.000000
0.000000
0.000000
0.000000
0.000000
0.000000
0.000000
0.000000
0.000000
0.000000
0.000000
0.000000
0.000000
0.000000
0.000000
0.000000
0.000000
0.000000
0.000000
0.000000
0.000000
0.000000
0.000000
0.000000
0.000000
0.000000
0.000000
0.000000
0.000000
0.000000
0.000000
0.000000
0.000000
0.000000
0.000000
0.000000
0.000000
0.000000
0.000000
0.000000
0.000000
0.000000
0.000000
0.000000
0.000000
0.000000
0.000000
0.000000
0.000000
0.000000
0.000000
0.000000
0.000000
0.000000
0.000000
0.000000
0.000000
0.000000
0.000000
0.000000
0.000000
0.000000
0.000000
0.000000
0.000000
0.000000
0.000000
0.000000
0.000000
0.000000
0.000000
0.000000
0.000000
0.000000
0.000000
0.000000
0.000000
0.000000
0.000000
0.000000
0.000000
0.000000
0.000000
0.000000
0.000000
0.000000
0.000000
0.000000
0.000000
0.000000
0.000000
0.000000
0.000000
0.000000
0.000000
0.000000
0.000000
0.000000
0.239886
0.129897
0.330295
0.189605
0.335874
0.006013
0.537131
0.065397
0.171212
0.258019
0.281390
0.148009
0.093045
0.168091
0.144546
0.128833
0.065884
0.165522
0.315616
0.125597
0.000000
0.000000
0.000000
0.000000
0.190328
0.649773
1.813412
2.239479
1.658255
0.555844
0.634327
0.228935
0.279057
0.617800
1.714192
0.441450
0.099203
0.244513
0.335640
0.424567
0.076180
0.263942
0.189224
0.292089
0.000000
0.000000
0.000000
0.000000
0.320373
1.195835
0.823427
0.398246
0.629797
0.423060
0.271434
2.727290
0.581557
0.086440
0.365565
0.756559
0.666597
0.131959
0.320053
0.292746
0.109931
1.178969
1.327830
0.327743
0.000000
0.000000
0.000000
0.000000
0.473083
0.272562
0.598742
0.446466
0.528863
0.178484
0.319169
1.728849
0.519987
0.178174
0.363589
0.287975
0.584823
0.433147
1.374783
0.665262
0.394846
1.411574
0.839976
0.581544
0.000000
0.000000
0.000000
0.000000
0.230267
0.464734
0.539994
0.064570
0.476062
0.216647
1.788932
0.636231
0.512946
0.203621
0.320536
0.843961
0.246274
0.412833
0.946906
0.445208
1.372939
0.555247
0.723538
1.465876
0.000000
0.000000
0.000000
0.000000
0.872085
0.315067
0.836181
1.520048
0.142759
1.814663
0.240416
0.847362
0.379437
0.126751
0.235454
0.333670
0.102514
0.271050
0.399520
0.358413
0.481541
0.420764
0.231478
0.408790
0.000000
0.000000
0.000000
0.000000
0.863903
0.293655
0.329125
0.362418
0.211905
1.787281
0.286055
1.080444
1.422750
0.294915
0.333998
0.627928
0.538354
0.381695
0.187447
0.911014
0.304928
1.072001
0.941893
0.536907
0.000000
0.000000
0.000000
0.000000
3.173826
2.324384
2.311868
0.590557
1.835163
1.247236
0.961744
0.845837
0.768674
1.503717
0.501227
0.455293
2.629433
0.554617
0.588252
2.018251
0.380414
1.113354
0.211757
0.395098
0.000000
0.000000
0.000000
0.000000
2.012969
2.121822
0.501520
1.586043
1.239532
2.659052
0.867395
0.505631
0.742255
2.004728
0.509186
1.316487
1.442215
0.653183
1.944555
1.245385
0.479181
2.821981
1.109050
1.247396
0.000000
0.000000
0.000000
0.000000
2.855523
2.848039
0.498179
1.157396
2.778411
1.281023
2.998297
3.261498
0.510385
0.565429
0.812133
2.565595
1.813916
0.335296
0.956650
1.874592
0.547307
0.317080
2.299246
0.450175
0.000000
0.000000
0.000000
0.000000
0.000000
0.000000
0.000000
0.000000
0.000000
0.000000
0.000000
0.000000
0.000000
0.000000
0.000000
0.000000
0.000000
0.000000
0.000000
0.000000
0.000000
0.000000
0.000000
0.000000
0.000000
0.000000
0.000000
0.000000
0.000000
0.000000
0.000000
0.000000
0.000000
0.000000
0.000000
0.000000
0.000000
0.000000
0.000000
0.000000
0.000000
0.000000
0.000000
0.000000
0.000000
0.000000
0.000000
0.000000
0.000000
0.000000
0.000000
0.000000
0.000000
0.000000
0.000000
0.000000
0.000000
0.000000
0.000000
0.000000
0.000000
0.000000
0.000000
0.000000
0.000000
0.000000
0.000000
0.000000
0.000000
0.000000
0.000000
0.000000
0.000000
0.000000
0.000000
0.000000
0.000000
0.000000
0.000000
0.000000
0.000000
0.000000
0.000000
0.000000
0.000000
0.000000
0.000000
0.000000
0.000000
0.000000
0.000000
0.000000
0.000000
0.000000
0.000000
0.000000
0.000000
0.000000
0.000000
0.000000
0.000000
0.000000
0.000000
0.000000
0.000000
0.000000
0.000000
0.000000
0.000000
0.000000
0.000000
0.000000
0.000000
0.000000
0.000000
0.000000
0.000000
0.000000
0.000000
0.000000
0.000000
0.000000
0.000000
0.000000
0.000000
0.000000
0.000000
0.000000
0.000000
0.000000
0.000000
0.000000
0.000000
0.000000
0.000000
0.000000
0.000000
0.000000
0.000000
0.000000
0.000000
0.000000
0.000000
0.000000
0.000000
0.000000
0.000000
0.000000
0.000000
0.000000
0.000000
0.000000
0.000000
0.000000
0.000000
0.000000
0.000000
0.000000
0.000000
0.000000
0.000000
0.000000
0.000000
0.000000
0.000000
0.000000
0.000000
0.000000
0.000000
0.000000
0.000000
0.000000
0.000000
0.000000
0.000000
0.000000
0.000000
0.000000
0.000000
0.000000
0.000000
0.000000
0.000000
0.000000
0.000000
0.000000
0.000000
0.000000
0.000000
0.000000
0.000000
0.000000
0.000000
0.000000
0.000000
0.000000
0.000000
0.000000
0.000000
0.000000
0.000000
0.000000
0.000000
0.000000
0.000000
0.000000
0.000000
0.000000
0.000000
0.000000
0.000000
0.000000
0.000000
0.000000
0.000000
0.000000
0.000000
0.000000
0.000000
0.000000
0.000000
0.000000
0.000000
0.000000
0.000000
0.000000
0.000000
0.000000
0.000000
0.000000
0.000000
0.000000
</DataArray>
<DataArray NumberOfComponents='1' type='Float32' Name='pressure' format='ascii'>
0.000000
0.000000
0.000000
0.000000
0.000000
0.000000
0.000000
0.000000
0.000000
0.000000
0.000000
0.000000
0.000000
0.000000
0.000000
0.000000
0.000000
0.000000
0.000000
0.000000
0.000000
0.000000
0.000000
0.000000
0.000000
0.000000
0.000000
0.000000
0.000000
0.000000
0.000000
0.000000
0.000000
0.000000
0.000000
0.000000
0.000000
0.000000
0.000000
0.000000
0.000000
0.000000
0.000000
0.000000
0.000000
0.000000
0.000000
0.000000
0.000000
0.000000
0.000000
0.000000
0.000000
0.000000
0.000000
0.000000
0.000000
0.000000
0.000000
0.000000
595.047607
2828.272461
0.000000
0.000000
0.000000
0.000000
0.000000
0.000000
0.000000
0.000000
0.000000
0.000000
0.000000
0.000000
0.000000
0.000000
0.000000
0.000000
0.000000
0.000000
0.000000
0.000000
0.000000
0.000000
0.000000
0.000000
0.000000
0.000000
0.000000
766.282410
0.000000
0.000000
0.000000
0.000000
0.000000
0.000000
0.000000
0.000000
0.000000
0.000000
0.000000
0.000000
0.000000
0.000000
0.000000
0.000000
0.000000
0.000000
0.000000
0.000000
0.000000
0.000000
0.000000
0.000000
1542.255981
8.103559
0.000000
1177.729980
0.000000
1091.087524
36.558708
495.344513
2192.670898
1757.215210
0.000000
0.000000
0.000000
0.000000
1410.369385
632.522156
0.000000
0.000000
0.000000
0.000000
0.000000
559.510925
0.000000
0.000000
1483.864014
0.000000
1581.826294
0.000000
0.000000
0.000000
0.000000
989.822998
0.000000
1504.988159
3519.605469
0.000000
0.000000
0.000000
0.000000
5914.474121
674.736572
0.000000
0.000000
0.000000
0.000000
0.000000
0.000000
0.000000
1816.945801
1069.776001
2203.400879
0.000000
0.000000
672.211304
1164.733398
1958.614380
1285.347778
0.000000
2070.664795
1716.674927
227.833694
0.000000
0.000000
1980.497192
5252.167480
694.187744
0.000000
0.000000
0.000000
0.000000
0.000000
0.000000
1198.704224
1010.409912
1419.973755
792.082764
807.802124
3863.293701
5535.471191
105.790871
179.036346
0.000000
1181.062500
105.031021
115.743843
0.000000
0.000000
2328.784424
265.320923
3790.760498
1488.297119
1134.370605
488.182495
0.000000
0.000000
0.000000
0.000000
0.000000
0.000000
0.000000
0.000000
392.312347
1598.003052
1304.720337
0.000000
283.135529
0.000000
1873.000977
1498.257324
0.000000
1280.812622
2008.398682
647.935303
605.333008
51.811333
0.000000
0.000000
6865.538086
0.000000
0.000000
310.194153
0.000000
2057.005615
1612.989746
0.000000
0.000000
838.533569
0.000000
1419.865967
179.101013
239.861099
0.000000
739.636963
1601.161987
451.120148
2006.392700
603.317810
0.000000
1180.448730
1026.459106
2196.003662
0.000000
0.000000
0.000000
1165.071777
0.000000
0.000000
0.000000
280.572144
545.499146
444.496063
0.000000
988.911438
2184.305420
3023.265869
489.185303
761.083130
0.000000
0.000000
697.046936
51.438015
27.188999
685.099976
1251.338501
4344.487793
0.000000
0.000000
0.000000
1660.399414
533.714661
0.000000
0.000000
0.000000
0.000000
0.000000
1939.933594
0.000000
0.000000
0.000000
6548.785156
0.000000
953.331787
0.000000
0.000000
0.000000
0.000000
0.000000
0.000000
0.000000
192.728973
0.000000
0.000000
2065.968750
974.371887
0.000000
0.000000
0.000000
7977.243164
6411.490723
0.000000
0.000000
0.000000
0.000000
0.000000
0.000000
0.000000
861.065491
0.000000
0.000000
0.000000
0.000000
0.000000
0.000000
0.000000
0.000000
0.000000
2695.099365
2029.152466
0.000000
0.000000
1416.272827
0.000000
0.000000
0.000000
0.000000
0.000000
733.175720
0.000000
0.000000
0.000000
0.000000
1906.774902
0.000000
0.000000
0.000000
0.000000
0.000000
0.000000
0.000000
0.000000
2297.895508
1203.122681
0.000000
0.000000
1844.204956
1016.773560
0.000000
0.000000
1322.555420
0.000000
0.000000
0.000000
810.846741
709.115356
0.000000
0.000000
3141.128662
2207.837402
0.000000
0.000000
4540.619141
2430.734131
0.000000
0.000000
4988.166504
5139.732422
0.000000
0.000000
4433.135742
5627.860840
0.000000
0.000000
1174.554688
1604.069458
0.000000
0.000000
0.000000
0.000000
0.000000
0.000000
0.000000
0.000000
0.000000
0.000000
0.000000
0.000000
0.000000
0.000000
0.000000
0.000000
0.000000
0.000000
3101.177246
1919.246216
0.000000
0.000000
3921.307861
1722.821411
0.000000
0.000000
1897.112793
0.000000
0.000000
0.000000
3080.477051
2865.251953
0.000000
0.000000
2728.398193
2440.536377
0.000000
0.000000
2792.833984
1956.741211
0.000000
0.000000
2606.138672
545.849976
0.000000
0.000000
3216.058594
2348.810059
0.000000
0.000000
2556.192871
3396.882568
0.000000
0.000000
493.595032
517.920166
0.000000
0.000000
407.962769
152.449951
0.000000
0.000000
163.252548
0.000000
0.000000
0.000000
2351.948730
1956.667114
0.000000
0.000000
1621.084717
514.727051
0.000000
0.000000
1359.891968
405.700897
0.000000
0.000000
213.322830
0.000000
0.000000
0.000000
0.000000
0.000000
0.000000
0.000000
0.000000
0.000000
1309.728271
955.828064
2470.307373
2090.217285
1908.069824
419.512238
0.000000
0.000000
0.000000
0.000000
0.000000
0.000000
0.000000
0.000000
0.000000
0.000000
0.000000
0.000000
0.000000
0.000000
0.000000
0.000000
0.000000
0.000000
0.000000
0.000000
11.201680
308.737854
1539.348145
898.389587
1993.752319
2547.970703
2860.500000
2004.304321
1354.147339
0.000000
0.000000
0.000000
0.000000
543.287109
0.000000
0.000000
0.000000
0.000000
0.000000
0.000000
0.000000
0.000000
0.000000
0.000000
0.000000
0.000000
0.000000
0.000000
0.000000
0.000000
0.000000
0.000000
0.000000
0.000000
0.000000
0.000000
0.000000
0.000000
0.000000
0.000000
0.000000
0.000000
0.000000
0.000000
0.000000
0.000000
0.000000
0.000000
0.000000
0.000000
0.000000
0.000000
0.000000
0.000000
0.000000
0.000000
0.000000
0.000000
0.000000
0.000000
0.000000
0.000000
0.000000
0.000000
0.000000
0.000000
0.000000
0.000000
0.000000
0.000000
0.000000
0.000000
0.000000
0.000000
0.000000
0.000000
0.000000
0.000000
0.000000
0.000000
0.000000
0.000000
</DataArray>
</PointData>
<Cells>
<DataArray type='Int32' Name='connectivity' format='ascii'>
0
1
2
3
4
5
6
7
8
9
10
11
12
13
14
15
16
17
18
19
20
21
22
23
24
25
26
27
28
29
30
31
32
33
34
35
36
37
38
39
40
41
42
43
44
45
46
47
48
49
50
51
52
53
54
55
56
57
58
59
60
61
62
63
64
65
66
67
68
69
70
71
72
73
74
75
76
77
78
79
80
81
82
83
84
85
86
87
88
89
90
91
92
93
94
95
96
97
98
99
100
101
102
103
104
105
106
107
108
109
110
111
112
113
114
115
116
117
118
119
120
121
122
123
124
125
126
127
128
129
130
131
132
133
134
135
136
137
138
139
140
141
142
143
144
145
146
147
148
149
150
151
152
153
154
155
156
157
158
159
160
161
162
163
164
165
166
167
168
169
170
171
172
173
174
175
176
177
178
179
180
181
182
183
184
185
186
187
188
189
190
191
192
193
194
195
196
197
198
199
200
201
202
203
204
205
206
207
208
209
210
211
212
213
214
215
216
217
218
219
220
221
222
223
224
225
226
227
228
229
230
231
232
233
234
235
236
237
238
239
240
241
242
243
244
245
246
247
248
249
250
251
252
253
254
255
256
257
258
259
260
261
262
263
264
265
266
267
268
269
270
271
272
273
274
275
276
277
278
279
280
281
282
283
284
285
286
287
288
289
290
291
292
293
294
295
296
297
298
299
300
301
302
303
304
305
306
307
308
309
310
311
312
313
314
315
316
317
318
319
320
321
322
323
324
325