<?xml version='1.0' encoding='UTF-8'?>
<VTKFile xmlns='VTK' byte_order='LittleEndian' version='0.1' type='UnstructuredGrid'>
<UnstructuredGrid>
<Piece NumberOfCells='584' NumberOfPoints='584'>
<Points>
<DataArray NumberOfComponents='3' type='Float32' Name='Position' format='ascii'>
-0.075000 -0.075000 0.000000
-0.075000 -0.050000 0.000000
-0.075000 -0.025000 0.000000
-0.075000 0.000000 0.000000
-0.075000 0.025000 0.000000
-0.075000 0.050000 0.000000
-0.075000 0.075000 0.000000
-0.075000 0.100000 0.000000
-0.075000 0.125000 0.000000
-0.075000 0.150000 0.000000
-0.075000 0.175000 0.000000
-0.075000 0.200000 0.000000
-0.075000 0.225000 0.000000
-0.075000 0.250000 0.000000
-0.075000 0.275000 0.000000
-0.075000 0.300000 0.000000
-0.075000 0.325000 0.000000
-0.075000 0.350000 0.000000
-0.075000 0.375000 0.000000
-0.075000 0.400000 0.000000
-0.075000 0.425000 0.000000
-0.075000 0.450000 0.000000
-0.075000 0.475000 0.000000
-0.075000 0.500000 0.000000
-0.075000 0.525000 0.000000
-0.075000 0.550000 0.000000
-0.075000 0.575000 0.000000
-0.075000 0.600000 0.000000
-0.050000 -0.075000 0.000000
-0.050000 -0.050000 0.000000
-0.050000 -0.025000 0.000000
-0.050000 0.000000 0.000000
-0.050000 0.025000 0.000000
-0.050000 0.050000 0.000000
-0.050000 0.075000 0.000000
-0.050000 0.100000 0.000000
-0.050000 0.125000 0.000000
-0.050000 0.150000 0.000000
-0.050000 0.175000 0.000000
-0.050000 0.200000 0.000000
-0.050000 0.225000 0.000000
-0.050000 0.250000 0.000000
-0.050000 0.275000 0.000000
-0.050000 0.300000 0.000000
-0.050000 0.325000 0.000000
-0.050000 0.350000 0.000000
-0.050000 0.375000 0.000000
-0.050000 0.400000 0.000000
-0.050000 0.425000 0.000000
-0.050000 0.450000 0.000000
-0.050000 0.475000 0.000000
-0.050000 0.500000 0.000000
-0.050000 0.525000 0.000000
-0.050000 0.550000 0.000000
-0.050000 0.575000 0.000000
-0.050000 0.600000 0.000000
-0.025000 -0.075000 0.000000
-0.025000 -0.050000 0.000000
-0.025000 -0.025000 0.000000
-0.025000 0.000000 0.000000
-0.025000 0.025000 0.000000
-0.025000 0.050000 0.000000
-0.025000 0.075000 0.000000
-0.025000 0.100000 0.000000
-0.025000 0.125000 0.000000
-0.025000 0.150000 0.000000
-0.025000 0.175000 0.000000
-0.025000 0.200000 0.000000
-0.025000 0.225000 0.000000
-0.025000 0.250000 0.000000
-0.025000 0.275000 0.000000
-0.025000 0.300000 0.000000
-0.025000 0.325000 0.000000
-0.025000 0.350000 0.000000
-0.025000 0.375000 0.000000
-0.025000 0.400000 0.000000
-0.025000 0.425000 0.000000
-0.025000 0.450000 0.000000
-0.025000 0.475000 0.000000
-0.025000 0.500000 0.000000
-0.025000 0.525000 0.000000
-0.025000 0.550000 0.000000
-0.025000 0.575000 0.000000
-0.025000 0.600000 0.000000
0.000000 -0.075000 0.000000
0.000000 -0.050000 0.000000
0.000000 -0.025000 0.000000
0.000000 0.000000 0.000000
0.000000 0.025000 0.000000
0.000000 0.050000 0.000000
0.000000 0.075000 0.000000
0.000000 0.100000 0.000000
0.000000 0.125000 0.000000
0.000000 0.150000 0.000000
0.000000 0.175000 0.000000
0.000000 0.200000 0.000000
0.000000 0.225000 0.000000
0.000000 0.250000 0.000000
0.000000 0.275000 0.000000
0.000000 0.300000 0.000000
0.000000 0.325000 0.000000
0.000000 0.350000 0.000000
0.000000 0.375000 0.000000
0.000000 0.400000 0.000000
0.000000 0.425000 0.000000
0.000000 0.450000 0.000000
0.000000 0.475000 0.000000
0.000000 0.500000 0.000000
0.000000 0.525000 0.000000
0.000000 0.550000 0.000000
0.000000 0.575000 0.000000
0.000000 0.600000 0.000000
0.025000 -0.075000 0.000000
0.025000 -0.050000 0.000000
0.025000 -0.025000 0.000000
0.025000 0.000000 0.000000
0.317623 0.077624 0.000000
0.166780 0.107760 0.000000
0.292147 0.053816 0.000000
0.276366 0.027937 0.000000
0.313614 0.044529 0.000000
0.220695 0.049995 0.000000
0.391763 0.021382 0.000000
0.331811 0.100394 0.000000
0.245566 0.125689 0.000000
0.158290 0.124082 0.000000
0.297199 0.024171 0.000000
0.204179 0.071754 0.000000
0.251285 0.024915 0.000000
0.229512 0.024140 0.000000
0.177681 0.070259 0.000000
0.114440 0.038442 0.000000
0.023229 0.136684 0.000000
0.147452 0.020607 0.000000
0.069744 0.075527 0.000000
0.280192 0.077139 0.000000
0.050000 -0.075000 0.000000
0.050000 -0.050000 0.000000
0.050000 -0.025000 0.000000
0.050000 0.000000 0.000000
0.094042 0.151178 0.000000
0.166442 0.047503 0.000000
0.083670 0.089911 0.000000
0.066529 0.022745 0.000000
0.024163 0.075516 0.000000
0.510069 0.059813 0.000000
0.272590 0.117778 0.000000
0.633048 0.027604 0.000000
0.118565 0.100555 0.000000
0.300391 0.149743 0.000000
0.200482 0.022654 0.000000
0.269986 0.157205 0.000000
0.043286 0.171512 0.000000
0.367885 0.151375 0.000000
0.245388 0.054194 0.000000
0.048319 0.039187 0.000000
0.299836 0.088376 0.000000
0.357769 0.079326 0.000000
0.091723 0.113833 0.000000
0.136840 0.040971 0.000000
0.075000 -0.075000 0.000000
0.075000 -0.050000 0.000000
0.075000 -0.025000 0.000000
0.075000 0.000000 0.000000
0.230534 0.077313 0.000000
0.199894 0.114699 0.000000
0.473186 0.134846 0.000000
0.421116 0.026123 0.000000
0.496392 0.142026 0.000000
0.574048 0.138308 0.000000
0.600225 0.113202 0.000000
0.083348 0.058866 0.000000
0.395350 0.066865 0.000000
0.626644 0.053268 0.000000
0.509846 0.025066 0.000000
0.119252 0.062469 0.000000
0.295532 0.111380 0.000000
0.260215 0.179492 0.000000
0.365933 0.059075 0.000000
0.079065 0.038934 0.000000
0.183892 0.089364 0.000000
0.043750 0.064307 0.000000
0.216192 0.095257 0.000000
0.267000 0.055518 0.000000
0.100000 -0.075000 0.000000
0.100000 -0.050000 0.000000
0.100000 -0.025000 0.000000
0.100000 0.000000 0.000000
0.558658 0.026241 0.000000
0.395276 0.191252 0.000000
0.522193 0.132106 0.000000
0.791999 0.021634 0.000000
0.333118 0.062038 0.000000
0.721713 0.024542 0.000000
0.581797 0.072000 0.000000
0.346216 0.040764 0.000000
0.685903 0.043409 0.000000
0.717103 0.072191 0.000000
0.535513 0.025042 0.000000
0.385497 0.087622 0.000000
0.539966 0.131851 0.000000
0.677235 0.084825 0.000000
0.062577 0.131889 0.000000
0.327225 0.024309 0.000000
0.557307 0.078761 0.000000
0.380471 0.041416 0.000000
0.406319 0.095128 0.000000
0.138116 0.110249 0.000000
0.125000 -0.075000 0.000000
0.125000 -0.050000 0.000000
0.125000 -0.025000 0.000000
0.125000 0.000000 0.000000
0.733390 0.079230 0.000000
0.626235 0.078406 0.000000
0.994707 0.072875 0.000000
0.853717 0.025805 0.000000
0.557559 0.119131 0.000000
0.672835 0.059054 0.000000
0.038991 0.136043 0.000000
0.527545 0.077196 0.000000
0.798381 0.074609 0.000000
0.755584 0.046469 0.000000
0.859779 0.061219 0.000000
0.550190 0.056828 0.000000
0.580137 0.048813 0.000000
0.419024 0.121786 0.000000
0.487487 0.023817 0.000000
0.437994 0.148331 0.000000
0.207076 0.143536 0.000000
0.252474 0.082245 0.000000
0.456186 0.129407 0.000000
0.055728 0.108103 0.000000
0.150000 -0.075000 0.000000
0.150000 -0.050000 0.000000
0.150000 -0.025000 0.000000
0.150000 0.000000 0.000000
0.189610 0.174655 0.000000
0.976867 0.028631 0.000000
0.697448 0.073279 0.000000
0.408774 0.048968 0.000000
0.900448 0.026088 0.000000
0.261828 0.102313 0.000000
0.910126 0.073944 0.000000
0.443684 0.181801 0.000000
0.945877 0.046124 0.000000
0.538143 0.194974 0.000000
0.951084 0.022505 0.000000
0.699065 0.026563 0.000000
0.896117 0.077686 0.000000
0.823402 0.062144 0.000000
0.772182 0.031851 0.000000
0.601309 0.082203 0.000000
0.665674 0.020961 0.000000
0.613086 0.116719 0.000000
0.640994 0.091913 0.000000
0.349118 0.099288 0.000000
0.175000 -0.075000 0.000000
0.175000 -0.050000 0.000000
0.175000 -0.025000 0.000000
0.175000 0.000000 0.000000
0.147941 0.065720 0.000000
0.512194 0.160848 0.000000
0.898969 0.049962 0.000000
0.797868 0.058685 0.000000
0.997260 0.022882 0.000000
0.145593 0.085899 0.000000
0.876727 0.024599 0.000000
0.462326 0.041701 0.000000
0.483336 0.046429 0.000000
0.924474 0.025373 0.000000
0.548712 0.099125 0.000000
0.747165 0.075577 0.000000
0.472262 0.085611 0.000000
0.924547 0.052406 0.000000
0.980554 0.060297 0.000000
0.530172 0.048680 0.000000
1.001039 0.049491 0.000000
0.522523 0.100992 0.000000
0.121010 0.123762 0.000000
0.440620 0.087194 0.000000
0.200000 -0.075000 0.000000
0.200000 -0.050000 0.000000
0.200000 -0.025000 0.000000
0.200000 0.000000 0.000000
0.398958 0.120360 0.000000
0.174437 0.028588 0.000000
0.323650 0.124715 0.000000
0.831056 0.024241 0.000000
0.475459 0.110501 0.000000
0.392337 0.163331 0.000000
0.650934 0.038786 0.000000
0.959496 0.061567 0.000000
0.422531 0.147131 0.000000
0.107257 0.078133 0.000000
0.811423 0.038272 0.000000
0.646578 0.073191 0.000000
0.102982 0.022286 0.000000
0.460854 0.176635 0.000000
0.581055 0.025380 0.000000
0.242334 0.139895 0.000000
0.718976 0.045630 0.000000
0.437811 0.202488 0.000000
0.873145 0.057800 0.000000
0.680212 0.098462 0.000000
0.225000 -0.075000 0.000000
0.225000 -0.050000 0.000000
0.225000 -0.025000 0.000000
0.225000 0.000000 0.000000
0.450949 0.067078 0.000000
0.837662 0.053555 0.000000
0.547816 0.182044 0.000000
0.335913 0.147203 0.000000
0.060497 0.163474 0.000000
0.082818 0.128976 0.000000
0.497777 0.166478 0.000000
0.938829 0.084780 0.000000
0.602039 0.047597 0.000000
0.044929 0.091970 0.000000
0.584122 0.099413 0.000000
0.200431 0.160248 0.000000
0.448623 0.022344 0.000000
0.503894 0.089336 0.000000
0.198503 0.045588 0.000000
0.220286 0.116544 0.000000
0.564065 0.146980 0.000000
0.027376 0.022263 0.000000
0.294804 0.138407 0.000000
0.434877 0.045365 0.000000
0.250000 -0.075000 0.000000
0.250000 -0.050000 0.000000
0.250000 -0.025000 0.000000
0.250000 0.000000 0.000000
0.750349 0.024449 0.000000
0.427907 0.175894 0.000000
0.341718 0.161261 0.000000
0.423612 0.072414 0.000000
0.359071 0.023021 0.000000
0.382706 0.138674 0.000000
0.128354 0.157021 0.000000
0.389237 0.178277 0.000000
0.352171 0.133355 0.000000
0.498470 0.117623 0.000000
0.242048 0.177740 0.000000
0.023006 0.105865 0.000000
0.180172 0.133547 0.000000
0.610768 0.023350 0.000000
0.444401 0.107132 0.000000
0.484405 0.070033 0.000000
0.376546 0.111291 0.000000
0.767373 0.066131 0.000000
0.024772 0.045200 0.000000
0.507527 0.183325 0.000000
0.275000 -0.075000 0.000000
0.275000 -0.050000 0.000000
0.275000 -0.025000 0.000000
0.275000 0.000000 0.000000
0.300000 -0.075000 0.000000
0.300000 -0.050000 0.000000
0.300000 -0.025000 0.000000
0.300000 0.000000 0.000000
0.325000 -0.075000 0.000000
0.325000 -0.050000 0.000000
0.325000 -0.025000 0.000000
0.325000 0.000000 0.000000
0.350000 -0.075000 0.000000
0.350000 -0.050000 0.000000
0.350000 -0.025000 0.000000
0.350000 0.000000 0.000000
0.375000 -0.075000 0.000000
0.375000 -0.050000 0.000000
0.375000 -0.025000 0.000000
0.375000 0.000000 0.000000
0.400000 -0.075000 0.000000
0.400000 -0.050000 0.000000
0.400000 -0.025000 0.000000
0.400000 0.000000 0.000000
0.425000 -0.075000 0.000000
0.425000 -0.050000 0.000000
0.425000 -0.025000 0.000000
0.425000 0.000000 0.000000
0.450000 -0.075000 0.000000
0.450000 -0.050000 0.000000
0.450000 -0.025000 0.000000
0.450000 0.000000 0.000000
0.475000 -0.075000 0.000000
0.475000 -0.050000 0.000000
0.475000 -0.025000 0.000000
0.475000 0.000000 0.000000
0.500000 -0.075000 0.000000
0.500000 -0.050000 0.000000
0.500000 -0.025000 0.000000
0.500000 0.000000 0.000000
0.525000 -0.075000 0.000000
0.525000 -0.050000 0.000000
0.525000 -0.025000 0.000000
0.525000 0.000000 0.000000
0.550000 -0.075000 0.000000
0.550000 -0.050000 0.000000
0.550000 -0.025000 0.000000
0.550000 0.000000 0.000000
0.575000 -0.075000 0.000000
0.575000 -0.050000 0.000000
0.575000 -0.025000 0.000000
0.575000 0.000000 0.000000
0.600000 -0.075000 0.000000
0.600000 -0.050000 0.000000
0.600000 -0.025000 0.000000
0.600000 0.000000 0.000000
0.625000 -0.075000 0.000000
0.625000 -0.050000 0.000000
0.625000 -0.025000 0.000000
0.625000 0.000000 0.000000
0.650000 -0.075000 0.000000
0.650000 -0.050000 0.000000
0.650000 -0.025000 0.000000
0.650000 0.000000 0.000000
0.675000 -0.075000 0.000000
0.675000 -0.050000 0.000000
0.675000 -0.025000 0.000000
0.675000 0.000000 0.000000
0.700000 -0.075000 0.000000
0.700000 -0.050000 0.000000
0.700000 -0.025000 0.000000
0.700000 0.000000 0.000000
0.725000 -0.075000 0.000000
0.725000 -0.050000 0.000000
0.725000 -0.025000 0.000000
0.725000 0.000000 0.000000
0.750000 -0.075000 0.000000
0.750000 -0.050000 0.000000
0.750000 -0.025000 0.000000
0.750000 0.000000 0.000000
0.775000 -0.075000 0.000000
0.775000 -0.050000 0.000000
0.775000 -0.025000 0.000000
0.775000 0.000000 0.000000
0.800000 -0.075000 0.000000
0.800000 -0.050000 0.000000
0.800000 -0.025000 0.000000
0.800000 0.000000 0.000000
0.825000 -0.075000 0.000000
0.825000 -0.050000 0.000000
0.825000 -0.025000 0.000000
0.825000 0.000000 0.000000
0.850000 -0.075000 0.000000
0.850000 -0.050000 0.000000
0.850000 -0.025000 0.000000
0.850000 0.000000 0.000000
0.875000 -0.075000 0.000000
0.875000 -0.050000 0.000000
0.875000 -0.025000 0.000000
0.875000 0.000000 0.000000
0.900000 -0.075000 0.000000
0.900000 -0.050000 0.000000
0.900000 -0.025000 0.000000
0.900000 0.000000 0.000000
0.925000 -0.075000 0.000000
0.925000 -0.050000 0.000000
0.925000 -0.025000 0.000000
0.925000 0.000000 0.000000
0.950000 -0.075000 0.000000
0.950000 -0.050000 0.000000
0.950000 -0.025000 0.000000
0.950000 0.000000 0.000000
0.975000 -0.075000 0.000000
0.975000 -0.050000 0.000000
0.975000 -0.025000 0.000000
0.975000 0.000000 0.000000
1.000000 -0.075000 0.000000
1.000000 -0.050000 0.000000
1.000000 -0.025000 0.000000
1.000000 0.000000 0.000000
1.025000 -0.075000 0.000000
1.025000 -0.050000 0.000000
1.025000 -0.025000 0.000000
1.025000 0.000000 0.000000
1.025000 0.025000 0.000000
1.025000 0.050000 0.000000
1.025000 0.075000 0.000000
1.025000 0.100000 0.000000
1.025000 0.125000 0.000000
1.025000 0.150000 0.000000
1.025000 0.175000 0.000000
1.025000 0.200000 0.000000
1.025000 0.225000 0.000000
1.025000 0.250000 0.000000
1.025000 0.275000 0.000000
1.025000 0.300000 0.000000
1.025000 0.325000 0.000000
1.025000 0.350000 0.000000
1.025000 0.375000 0.000000
1.025000 0.400000 0.000000
1.025000 0.425000 0.000000
1.025000 0.450000 0.000000
1.025000 0.475000 0.000000
1.025000 0.500000 0.000000
1.025000 0.525000 0.000000
1.025000 0.550000 0.000000
1.025000 0.575000 0.000000
1.025000 0.600000 0.000000
1.050000 -0.075000 0.000000
1.050000 -0.050000 0.000000
1.050000 -0.025000 0.000000
1.050000 0.000000 0.000000
1.050000 0.025000 0.000000
1.050000 0.050000 0.000000
1.050000 0.075000 0.000000
1.050000 0.100000 0.000000
1.050000 0.125000 0.000000
1.050000 0.150000 0.000000
1.050000 0.175000 0.000000
1.050000 0.200000 0.000000
1.050000 0.225000 0.000000
1.050000 0.250000 0.000000
1.050000 0.275000 0.000000
1.050000 0.300000 0.000000
1.050000 0.325000 0.000000
1.050000 0.350000 0.000000
1.050000 0.375000 0.000000
1.050000 0.400000 0.000000
1.050000 0.425000 0.000000
1.050000 0.450000 0.000000
1.050000 0.475000 0.000000
1.050000 0.500000 0.000000
1.050000 0.525000 0.000000
1.050000 0.550000 0.000000
1.050000 0.575000 0.000000
1.050000 0.600000 0.000000
1.075000 -0.075000 0.000000
1.075000 -0.050000 0.000000
1.075000 -0.025000 0.000000
1.075000 0.000000 0.000000
1.075000 0.025000 0.000000
1.075000 0.050000 0.000000
1.075000 0.075000 0.000000
1.075000 0.100000 0.000000
1.075000 0.125000 0.000000
1.075000 0.150000 0.000000
1.075000 0.175000 0.000000
1.075000 0.200000 0.000000
1.075000 0.225000 0.000000
1.075000 0.250000 0.000000
1.075000 0.275000 0.000000
1.075000 0.300000 0.000000
1.075000 0.325000 0.000000
1.075000 0.350000 0.000000
1.075000 0.375000 0.000000
1.075000 0.400000 0.000000
1.075000 0.425000 0.000000
1.075000 0.450000 0.000000
1.075000 0.475000 0.000000
1.075000 0.500000 0.000000
1.075000 0.525000 0.000000
1.075000 0.550000 0.000000
1.075000 0.575000 0.000000
1.075000 0.600000 0.000000
1.100000 -0.075000 0.000000
1.100000 -0.050000 0.000000
1.100000 -0.025000 0.000000
1.100000 0.000000 0.000000
1.100000 0.025000 0.000000
1.100000 0.050000 0.000000
1.100000 0.075000 0.000000
1.100000 0.100000 0.000000
1.100000 0.125000 0.000000
1.100000 0.150000 0.000000
1.100000 0.175000 0.000000
1.100000 0.200000 0.000000
1.100000 0.225000 0.000000
1.100000 0.250000 0.000000
1.100000 0.275000 0.000000
1.100000 0.300000 0.000000
1.100000 0.325000 0.000000
1.100000 0.350000 0.000000
1.100000 0.375000 0.000000
1.100000 0.400000 0.000000
1.100000 0.425000 0.000000
1.100000 0.450000 0.000000
1.100000 0.475000 0.000000
1.100000 0.500000 0.000000
1.100000 0.525000 0.000000
1.100000 0.550000 0.000000
1.100000 0.575000 0.000000
1.100000 0.600000 0.000000
</DataArray>
</Points>
<PointData>
<DataArray NumberOfComponents='1' type='Int32' Name='ParticleType' format='ascii'>
3
3
3
3
3
3
3
3
3
3
3
3
3
3
3
3
3
3
3
3
3
3
3
3
3
3
2
2
3
3
3
3
3
3
3
3
3
3
3
3
3
3
3
3
3
3
3
3
3
3
3
3
3
3
2
2
3
3
2
2
2
2
2
2
2
2
2
2
2
2
2
2
2
2
2
2
2
2
2
2
2
2
2
2
3
3
2
2
2
2
2
2
2
2
2
2
2
2
2
2
2
2
2
2
2
2
2
2
2
2
2
2
3
3
2
2
0
0
0
0
0
0
0
0
0
0
0
0
0
0
0
0
0
0
0
0
3
3
2
2
0
0
0
0
0
0
0
0
0
0
0
0
0
0
0
0
0
0
0
0
3
3
2
2
0
0
0
0
0
0
0
0
0
0
0
0
0
0
0
0
0
0
0
0
3
3
2
2
0
0
0
0
0
0
0
0
0
0
0
0
0
0
0
0
0
0
0
0
3
3
2
2
0
0
0
0
0
0
0
0
0
0
0
0
0
0
0
0
0
0
0
0
3
3
2
2
0
0
0
0
0
0
0
0
0
0
0
0
0
0
0
0
0
0
0
0
3
3
2
2
0
0
0
0
0
0
0
0
0
0
0
0
0
0
0
0
0
0
0
0
3
3
2
2
0
0
0
0
0
0
0
0
0
0
0
0
0
0
0
0
0
0
0
0
3
3
2
2
0
0
0
0
0
0
0
0
0
0
0
0
0
0
0
0
0
0
0
0
3
3
2
2
0
0
0
0
0
0
0
0
0
0
0
0
0
0
0
0
0
0
0
0
3
3
2
2
3
3
2
2
3
3
2
2
3
3
2
2
3
3
2
2
3
3
2
2
3
3
2
2
3
3
2
2
3
3
2
2
3
3
2
2
3
3
2
2
3
3
2
2
3
3
2
2
3
3
2
2
3
3
2
2
3
3
2
2
3
3
2
2
3
3
2
2
3
3
2
2
3
3
2
2
3
3
2
2
3
3
2
2
3
3
2
2
3
3
2
2
3
3
2
2
3
3
2
2
3
3
2
2
3
3
2
2
3
3
2
2
3
3
2
2
3
3
2
2
2
2
2
2
2
2
2
2
2
2
2
2
2
2
2
2
2
2
2
2
2
2
2
2
3
3
2
2
2
2
2
2
2
2
2
2
2
2
2
2
2
2
2
2
2
2
2
2
2
2
2
2
3
3
3
3
3
3
3
3
3
3
3
3
3
3
3
3
3
3
3
3
3
3
3
3
3
3
2
2
3
3
3
3
3
3
3
3
3
3
3
3
3
3
3
3
3
3
3
3
3
3
3
3
3
3
2
2
</DataArray>
<DataArray NumberOfComponents='1' type='Float32' Name='Velocity' format='ascii'>
0.000000
0.000000
0.000000
0.000000
0.000000
0.000000
0.000000
0.000000
0.000000
0.000000
0.000000
0.000000
0.000000
0.000000
0.000000
0.000000
0.000000
0.000000
0.000000
0.000000
0.000000
0.000000
0.000000
0.000000
0.000000
0.000000
0.000000
0.000000
0.000000
0.000000
0.000000
0.000000
0.000000
0.000000
0.000000
0.000000
0.000000
0.000000
0.000000
0.000000
0.000000
0.000000
0.000000
0.000000
0.000000
0.000000
0.000000
0.000000
0.000000
0.000000
0.000000
0.000000
0.000000
0.000000
0.000000
0.000000
0.000000
0.000000
0.000000
0.000000
0.000000
0.000000
0.000000
0.000000
0.000000
0.000000
0.000000
0.000000
0.000000
0.000000
0.000000
0.000000
0.000000
0.000000
0.000000
0.000000
0.000000
0.000000
0.000000
0.000000
0.000000
0.000000
0.000000
0.000000
0.000000
0.000000
0.000000
0.000000
0.000000
0.000000
0.000000
0.000000
0.000000
0.000000
0.000000
0.000000
0.000000
0.000000
0.000000
0.000000
0.000000
0.000000
0.000000
0.000000
0.000000
0.000000
0.000000
0.000000
0.000000
0.000000
0.000000
0.000000
0.000000
0.000000
0.000000
0.000000
0.421374
0.401606
0.243603
0.376322
0.396670
0.420382
0.457691
0.325454
0.110009
0.456858
0.253587
0.255085
0.470040
0.324462
0.441319
0.286274
0.104457
0.114926
0.221764
0.317111
0.000000
0.000000
0.000000
0.000000
0.692844
0.490099
0.085696
0.189940
0.280861
0.849804
0.554431
0.449200
0.111209
0.380184
0.436705
0.161099
0.183100
0.636066
0.177183
0.101380
0.351014
0.379069
0.257657
0.030178
0.000000
0.000000
0.000000
0.000000
0.462054
0.400981
0.632913
0.355822
0.751521
0.517765
0.740566
0.220530
0.588884
0.647508
0.831781
0.105906
0.397784
0.105841
0.507373
0.155451
0.105200
0.146010
0.349697
0.340496
0.000000
0.000000
0.000000
0.000000
0.866931
0.436127
0.547661
0.264789
0.370178
0.171609
0.708629
0.329297
0.227993
0.533368
0.610219
0.623928
0.433483
0.582657
0.205335
0.583568
0.480638
0.457664
0.844672
0.342344
0.000000
0.000000
0.000000
0.000000
0.383253
0.682868
0.189298
0.135930
0.690879
0.484727
0.332622
0.799782
0.485339
0.085613
0.160158
1.024547
0.574915
0.755502
0.692814
0.599208
0.335088
0.556395
0.765090
0.154576
0.000000
0.000000
0.000000
0.000000
0.327277
0.110482
0.634754
0.850260
0.036256
0.352907
0.367915
0.392911
0.219831
0.596478
0.402607
0.135416
0.247603
0.097020
0.153043
0.325984
0.405819
0.778792
0.653109
0.404830
0.000000
0.000000
0.000000
0.000000
0.329318
0.083104
0.157478
0.412649
0.086737
0.412707
0.226045
0.711458
0.577441
0.135350
0.521717
0.464026
0.724478
0.142633
0.131900
0.854859
0.167158
0.659455
0.133245
0.868821
0.000000
0.000000
0.000000
0.000000
0.412612
0.337748
0.189055
0.231881
0.584261
0.583269
0.964475
0.132970
0.685914
0.246584
0.155181
0.381274
0.343747
0.630349
0.696923
0.282166
0.232745
0.621945
0.064487
0.478989
0.000000
0.000000
0.000000
0.000000
0.930183
0.046232
0.601883
0.596420
0.298098
0.231321
0.318569
0.316517
0.689708
0.241803
0.632297
0.371222
0.613289
0.746393
0.505643
0.317092
0.494316
0.075571
0.094967
0.724004
0.000000
0.000000
0.000000
0.000000
0.128361
0.545774
0.656834
0.414597
0.385489
0.718437
0.118323
0.445500
0.633764
0.770163
0.214142
0.351341
0.237830
0.687386
0.515796
0.769572
0.619685
0.738045
0.208073
0.466472
0.000000
0.000000
0.000000
0.000000
0.000000
0.000000
0.000000
0.000000
0.000000
0.000000
0.000000
0.000000
0.000000
0.000000
0.000000
0.000000
0.000000
0.000000
0.000000
0.000000
0.000000
0.000000
0.000000
0.000000
0.000000
0.000000
0.000000
0.000000
0.000000
0.000000
0.000000
0.000000
0.000000
0.000000
0.000000
0.000000
0.000000
0.000000
0.000000
0.000000
0.000000
0.000000
0.000000
0.000000
0.000000
0.000000
0.000000
0.000000
0.000000
0.000000
0.000000
0.000000
0.000000
0.000000
0.000000
0.000000
0.000000
0.000000
0.000000
0.000000
0.000000
0.000000
0.000000
0.000000
0.000000
0.000000
0.000000
0.000000
0.000000
0.000000
0.000000
0.000000
0.000000
0.000000
0.000000
0.000000
0.000000
0.000000
0.000000
0.000000
0.000000
0.000000
0.000000
0.000000
0.000000
0.000000
0.000000
0.000000
0.000000
0.000000
0.000000
0.000000
0.000000
0.000000
0.000000
0.000000
0.000000
0.000000
0.000000
0.000000
0.000000
0.000000
0.000000
0.000000
0.000000
0.000000
0.000000
0.000000
0.000000
0.000000
0.000000
0.000000
0.000000
0.000000
0.000000
0.000000
0.000000
0.000000
0.000000
0.000000
0.000000
0.000000
0.000000
0.000000
0.000000
0.000000
0.000000
0.000000
0.000000
0.000000
0.000000
0.000000
0.000000
0.000000
0.000000
0.000000
0.000000
0.000000
0.000000
0.000000
0.000000
0.000000
0.000000
0.000000
0.000000
0.000000
0.000000
0.000000
0.000000
0.000000
0.000000
0.000000
0.000000
0.000000
0.000000
0.000000
0.000000
0.000000
0.000000
0.000000
0.000000
0.000000
0.000000
0.000000
0.000000
0.000000
0.000000
0.000000
0.000000
0.000000
0.000000
0.000000
0.000000
0.000000
0.000000
0.000000
0.000000
0.000000
0.000000
0.000000
0.000000
0.000000
0.000000
0.000000
0.000000
0.000000
0.000000
0.000000
0.000000
0.000000
0.000000
0.000000
0.000000
0.000000
0.000000
0.000000
0.000000
0.000000
0.000000
0.000000
0.000000
0.000000
0.000000
0.000000
0.000000
0.000000
0.000000
0.000000
0.000000
0.000000
0.000000
0.000000
0.000000
0.000000
0.000000
0.000000
0.000000
0.000000
0.000000
0.000000
0.000000
0.000000
0.000000
0.000000
0.000000
0.000000
0.000000
0.000000
0.000000
0.000000
0.000000
0.000000
</DataArray>
<DataArray NumberOfComponents='1' type='Float32' Name='pressure' format='ascii'>
0.000000
0.000000
0.000000
0.000000
0.000000
0.000000
0.000000
0.000000
0.000000
0.000000
0.000000
0.000000
0.000000
0.000000
0.000000
0.000000
0.000000
0.000000
0.000000
0.000000
0.000000
0.000000
0.000000
0.000000
0.000000
0.000000
0.000000
0.000000
0.000000
0.000000
0.000000
0.000000
0.000000
0.000000
0.000000
0.000000
0.000000
0.000000
0.000000
0.000000
0.000000
0.000000
0.000000
0.000000
0.000000
0.000000
0.000000
0.000000
0.000000
0.000000
0.000000
0.000000
0.000000
0.000000
0.000000
0.000000
0.000000
0.000000
2184.874512
1936.140625
908.319092
1422.160522
1497.848389
1381.826904
710.556396
0.000000
0.000000
0.000000
0.000000
0.000000
0.000000
0.000000
0.000000
0.000000
0.000000
0.000000
0.000000
0.000000
0.000000
0.000000
0.000000
0.000000
0.000000
0.000000
0.000000
0.000000
2331.198486
2381.464111
1337.245850
1520.398193
1466.541260
430.848785
0.000000
0.000000
0.000000
0.000000
0.000000
0.000000
0.000000
0.000000
0.000000
0.000000
0.000000
0.000000
0.000000
0.000000
0.000000
0.000000
0.000000
0.000000
0.000000
0.000000
0.000000
0.000000
3146.358643
3523.152832
1280.733765
461.518555
108.869896
1521.359497
1373.727661
1429.781860
2184.927979
47.911972
0.000000
0.000000
2122.430420
1143.304443
400.627319
1237.244019
0.790502
1523.543701
288.549377
884.812744
1283.373779
519.530090
0.000000
0.000000
1708.635498
0.000000
0.000000
1501.651001
1089.075073
2267.542969
1090.600098
917.532837
0.000000
2657.766846
725.269226
0.000000
809.857666
0.000000
0.000000
0.000000
1432.980103
814.436584
1478.472412
497.874817
924.313599
1829.506592
0.000000
0.000000
2046.902832
929.846924
1038.591797
436.354980
0.000000
997.093445
1753.919434
0.000000
0.000000
1031.427124
1223.875244
0.000000
68.270599
517.151794
0.000000
0.000000
676.720642
1828.189453
1095.091919
1599.794312
727.958252
1816.452393
0.000000
0.000000
2288.227539
1097.199219
1365.612793
0.000000
0.000000
0.000000
762.095825
639.544617
1139.088135
2889.635498
1815.052368
0.000000
2241.265625
1416.576538
0.000000
510.417450
0.000000
692.438354
611.294678
1325.609863
0.000000
809.059570
0.000000
0.000000
1238.202759
0.000000
0.000000
1557.990356
0.000000
165.772125
567.832764
0.000000
604.961060
1372.909912
0.000000
0.000000
0.000000
1416.716187
2329.687012
0.000000
1717.830322
580.158020
0.000000
0.000000
259.037781
1101.194824
0.000000
0.000000
3032.331299
2185.287354
0.000000
0.000000
0.000000
983.616333
877.480530
694.119080
0.000000
0.000000
648.851318
0.000000
1175.092407
1947.808594
0.000000
0.000000
1273.027466
986.363953
480.103699
0.000000
0.000000
447.553162
0.000000
0.000000
979.776917
328.541504
905.409790
1539.536255
668.852661
573.534424
1113.282227
1039.194214
0.000000
1471.011475
2350.413574
1118.327026
655.427185
0.000000
400.846588
0.000000
0.000000
1769.475708
595.064392
1008.170410
0.000000
986.575073
0.000000
0.000000
2722.781982
2770.760254
430.837433
1264.723877
0.000000
638.194397
923.245911
204.317963
106.955292
0.000000
579.281982
1004.409424
589.874084
367.949249
851.636353
0.000000
2263.016113
0.000000
0.000000
0.000000
289.931763
0.000000
0.000000
0.000000
2128.939209
2714.736328
710.961792
339.414001
0.000000
609.441467
0.000000
0.000000
0.000000
0.000000
146.478729
248.086792
0.000000
0.000000
1316.574585
0.000000
1578.671143
0.000000
0.000000
2314.822266
388.557465
1640.637939
0.000000
0.000000
1591.977417
1563.768188
268.251465
0.000000
0.000000
0.000000
2970.625732
758.310486
0.000000
0.000000
0.000000
607.190491
0.000000
0.000000
0.000000
2761.327393
0.000000
1857.984741
0.000000
0.000000
1933.098999
0.000000
0.000000
0.000000
685.048462
313.318939
0.000000
0.000000
2033.400024
2135.088379
0.000000
0.000000
2548.874023
2310.944580
0.000000
0.000000
3191.669678
2578.047852
0.000000
0.000000
3839.648438
2686.022705
0.000000
0.000000
3887.291748
3134.174316
0.000000
0.000000
2152.228516
1722.640625
0.000000
0.000000
3086.679688
2592.008301
0.000000
0.000000
1844.085449
587.647278
0.000000
0.000000
2227.229004
2356.658936
0.000000
0.000000
1585.905151
2838.631104
0.000000
0.000000
1280.317017
1997.705078
0.000000
0.000000
1453.725586
1903.737671
0.000000
0.000000
1810.374634
1417.495728
0.000000
0.000000
1585.097168
936.813477
0.000000
0.000000
2255.108887
1662.306885
0.000000
0.000000
2757.676025
1512.870728
0.000000
0.000000
1063.819214
1114.964600
0.000000
0.000000
1503.022217
1726.083496
0.000000
0.000000
1499.144287
1261.487915
0.000000
0.000000
1440.531494
883.528809
0.000000
0.000000
2163.478760
1453.511230
0.000000
0.000000
1220.287720
500.149567
0.000000
0.000000
668.040161
1283.767700
0.000000
0.000000
991.292725
1460.478760
0.000000
0.000000
620.342163
681.991943
0.000000
0.000000
1078.996338
881.071472
0.000000
0.000000
2170.480225
2773.057617
0.000000
0.000000
431.201660
507.873108
0.000000
0.000000
1522.734863
2083.423096
0.000000
0.000000
392.367584
0.000000
0.000000
0.000000
0.000000
0.000000
0.000000
0.000000
0.000000
0.000000
0.000000
0.000000
0.000000
0.000000
0.000000
0.000000
0.000000
0.000000
0.000000
0.000000
0.000000
0.000000
0.000000
0.000000
0.000000
0.000000
0.000000
0.000000
34.874260
0.000000
0.000000
0.000000
0.000000
0.000000
0.000000
0.000000
0.000000
0.000000
0.000000
0.000000
0.000000
0.000000
0.000000
0.000000
0.000000
0.000000
0.000000
0.000000
0.000000
0.000000
0.000000
0.000000
0.000000
0.000000
0.000000
0.000000
0.000000
0.000000
0.000000
0.000000
0.000000
0.000000
0.000000
0.000000
0.000000
0.000000
0.000000
0.000000
0.000000
0.000000
0.000000
0.000000
0.000000
0.000000
0.000000
0.000000
0.000000
0.000000
0.000000
0.000000
0.000000
0.000000
0.000000
0.000000
0.000000
0.000000
0.000000
0.000000
0.000000
0.000000
0.000000
0.000000
0.000000
0.000000
0.000000
0.000000
0.000000
0.000000
0.000000
0.000000
0.000000
0.000000
0.000000
0.000000
0.000000
0.000000
0.000000
0.000000
0.000000
0.000000
</DataArray>
</PointData>
<Cells>
<DataArray type='Int32' Name='connectivity' format='ascii'>
0
1
2
3
4
5
6
7
8
9
10
11
12
13
14
15
16
17
18
19
20
21
22
23
24
25
26
27
28
29
30
31
32
33
34
35
36
37
38
39
40
41
42
43
44
45
46
47
48
49
50
51
52
53
54
55
56
57
58
59
60
61
62
63
64
65
66
67
68
69
70
71
72
73
74
75
76
77
78
79
80
81
82
83
84
85
86
87
88
89
90
91
92
93
94
95
96
97
98
99
100
101
102
103
104
105
106
107
108
109
110
111
112
113
114
115
116
117
118
119
120
121
122
123
124
125
126
127
128
129
130
131
132
133
134
135
136
137
138
139
140
141
142
143
144
145
146
147
148
149
150
151
152
153
154
155
156
157
158
159
160
161
162
163
164
165
166
167
168
169
170
171
172
173
174
175
176
177
178
179
180
181
182
183
184
185
186
187
188
189
190
191
192
193
194
195
196
197
198
199
200
201
202
203
204
205
206
207
208
209
210
211
212
213
214
215
216
217
218
219
220
221
222
223
224
225
226
227
228
229
230
231
232
233
234
235
236
237
238
239
240
241
242
243
244
245
246
247
248
249
250
251
252
253
254
255
256
257
258
259
260
261
262
263
264
265
266
267
268
269
270
271
272
273
274
275
276
277
278
279
280
281
282
283
284
285
286
287
288
289
290
291
292
293
294
295