<?xml version='1.0' encoding='UTF-8'?>
<VTKFile xmlns='VTK' byte_order='LittleEndian' version='0.1' type='UnstructuredGrid'>
<UnstructuredGrid>
<Piece NumberOfCells='584' NumberOfPoints='584'>
<Points>
<DataArray NumberOfComponents='3' type='Float32' Name='Position' format='ascii'>
-0.075000 -0.075000 0.000000
-0.075000 -0.050000 0.000000
-0.075000 -0.025000 0.000000
-0.075000 0.000000 0.000000
-0.075000 0.025000 0.000000
-0.075000 0.050000 0.000000
-0.075000 0.075000 0.000000
-0.075000 0.100000 0.000000
-0.075000 0.125000 0.000000
-0.075000 0.150000 0.000000
-0.075000 0.175000 0.000000
-0.075000 0.200000 0.000000
-0.075000 0.225000 0.000000
-0.075000 0.250000 0.000000
-0.075000 0.275000 0.000000
-0.075000 0.300000 0.000000
-0.075000 0.325000 0.000000
-0.075000 0.350000 0.000000
-0.075000 0.375000 0.000000
-0.075000 0.400000 0.000000
-0.075000 0.425000 0.000000
-0.075000 0.450000 0.000000
-0.075000 0.475000 0.000000
-0.075000 0.500000 0.000000
-0.075000 0.525000 0.000000
-0.075000 0.550000 0.000000
-0.075000 0.575000 0.000000
-0.075000 0.600000 0.000000
-0.050000 -0.075000 0.000000
-0.050000 -0.050000 0.000000
-0.050000 -0.025000 0.000000
-0.050000 0.000000 0.000000
-0.050000 0.025000 0.000000
-0.050000 0.050000 0.000000
-0.050000 0.075000 0.000000
-0.050000 0.100000 0.000000
-0.050000 0.125000 0.000000
-0.050000 0.150000 0.000000
-0.050000 0.175000 0.000000
-0.050000 0.200000 0.000000
-0.050000 0.225000 0.000000
-0.050000 0.250000 0.000000
-0.050000 0.275000 0.000000
-0.050000 0.300000 0.000000
-0.050000 0.325000 0.000000
-0.050000 0.350000 0.000000
-0.050000 0.375000 0.000000
-0.050000 0.400000 0.000000
-0.050000 0.425000 0.000000
-0.050000 0.450000 0.000000
-0.050000 0.475000 0.000000
-0.050000 0.500000 0.000000
-0.050000 0.525000 0.000000
-0.050000 0.550000 0.000000
-0.050000 0.575000 0.000000
-0.050000 0.600000 0.000000
-0.025000 -0.075000 0.000000
-0.025000 -0.050000 0.000000
-0.025000 -0.025000 0.000000
-0.025000 0.000000 0.000000
-0.025000 0.025000 0.000000
-0.025000 0.050000 0.000000
-0.025000 0.075000 0.000000
-0.025000 0.100000 0.000000
-0.025000 0.125000 0.000000
-0.025000 0.150000 0.000000
-0.025000 0.175000 0.000000
-0.025000 0.200000 0.000000
-0.025000 0.225000 0.000000
-0.025000 0.250000 0.000000
-0.025000 0.275000 0.000000
-0.025000 0.300000 0.000000
-0.025000 0.325000 0.000000
-0.025000 0.350000 0.000000
-0.025000 0.375000 0.000000
-0.025000 0.400000 0.000000
-0.025000 0.425000 0.000000
-0.025000 0.450000 0.000000
-0.025000 0.475000 0.000000
-0.025000 0.500000 0.000000
-0.025000 0.525000 0.000000
-0.025000 0.550000 0.000000
-0.025000 0.575000 0.000000
-0.025000 0.600000 0.000000
0.000000 -0.075000 0.000000
0.000000 -0.050000 0.000000
0.000000 -0.025000 0.000000
0.000000 0.000000 0.000000
0.000000 0.025000 0.000000
0.000000 0.050000 0.000000
0.000000 0.075000 0.000000
0.000000 0.100000 0.000000
0.000000 0.125000 0.000000
0.000000 0.150000 0.000000
0.000000 0.175000 0.000000
0.000000 0.200000 0.000000
0.000000 0.225000 0.000000
0.000000 0.250000 0.000000
0.000000 0.275000 0.000000
0.000000 0.300000 0.000000
0.000000 0.325000 0.000000
0.000000 0.350000 0.000000
0.000000 0.375000 0.000000
0.000000 0.400000 0.000000
0.000000 0.425000 0.000000
0.000000 0.450000 0.000000
0.000000 0.475000 0.000000
0.000000 0.500000 0.000000
0.000000 0.525000 0.000000
0.000000 0.550000 0.000000
0.000000 0.575000 0.000000
0.000000 0.600000 0.000000
0.025000 -0.075000 0.000000
0.025000 -0.050000 0.000000
0.025000 -0.025000 0.000000
0.025000 0.000000 0.000000
0.189617 0.078970 0.000000
0.234434 0.037669 0.000000
0.163404 0.048117 0.000000
0.186094 0.020437 0.000000
0.299688 0.027669 0.000000
0.080438 0.061442 0.000000
0.379156 0.022081 0.000000
0.254408 0.028118 0.000000
0.218896 0.025052 0.000000
0.097732 0.131383 0.000000
0.274474 0.022641 0.000000
0.119591 0.132552 0.000000
0.159723 0.025816 0.000000
0.046309 0.052908 0.000000
0.111496 0.067023 0.000000
0.036363 0.035268 0.000000
0.126178 0.082394 0.000000
0.103946 0.032328 0.000000
0.093353 0.106611 0.000000
0.125180 0.022454 0.000000
0.050000 -0.075000 0.000000
0.050000 -0.050000 0.000000
0.050000 -0.025000 0.000000
0.050000 0.000000 0.000000
0.297236 0.100544 0.000000
0.280414 0.245076 0.000000
0.323552 0.183335 0.000000
0.019451 0.050763 0.000000
0.017138 0.127189 0.000000
0.542625 0.046980 0.000000
0.255610 0.096254 0.000000
0.682876 0.050098 0.000000
0.302849 0.075477 0.000000
0.328185 0.117666 0.000000
0.072709 0.118129 0.000000
0.340255 0.047717 0.000000
0.100731 0.083854 0.000000
0.283968 0.123475 0.000000
0.142168 0.063051 0.000000
0.047914 0.084300 0.000000
0.202857 0.043734 0.000000
0.290067 0.051951 0.000000
0.139011 0.111756 0.000000
0.127434 0.042566 0.000000
0.075000 -0.075000 0.000000
0.075000 -0.050000 0.000000
0.075000 -0.025000 0.000000
0.075000 0.000000 0.000000
0.271709 0.111563 0.000000
0.197035 0.114288 0.000000
0.487572 0.044679 0.000000
0.405394 0.029967 0.000000
0.675023 0.099589 0.000000
0.740997 0.027869 0.000000
0.757998 0.043288 0.000000
0.062939 0.135066 0.000000
0.616436 0.086871 0.000000
0.731104 0.061600 0.000000
0.521806 0.022665 0.000000
0.278380 0.152075 0.000000
0.265516 0.054387 0.000000
0.327728 0.093201 0.000000
0.323897 0.023427 0.000000
0.154095 0.108179 0.000000
0.278140 0.083461 0.000000
0.020680 0.085633 0.000000
0.232149 0.072805 0.000000
0.217687 0.063129 0.000000
0.100000 -0.075000 0.000000
0.100000 -0.050000 0.000000
0.100000 -0.025000 0.000000
0.100000 0.000000 0.000000
0.585159 0.029546 0.000000
0.505217 0.066866 0.000000
0.605865 0.045337 0.000000
0.863652 0.021122 0.000000
0.310870 0.054314 0.000000
0.829812 0.021592 0.000000
0.771304 0.097337 0.000000
0.382079 0.042133 0.000000
0.771826 0.022911 0.000000
0.796177 0.051073 0.000000
0.560321 0.021367 0.000000
0.506386 0.096392 0.000000
0.690623 0.069252 0.000000
0.709543 0.044487 0.000000
0.347264 0.142153 0.000000
0.346695 0.024807 0.000000
0.635978 0.029196 0.000000
0.425083 0.117448 0.000000
0.468707 0.078091 0.000000
0.332987 0.074079 0.000000
0.125000 -0.075000 0.000000
0.125000 -0.050000 0.000000
0.125000 -0.025000 0.000000
0.125000 0.000000 0.000000
0.796931 0.091920 0.000000
0.866579 0.091544 0.000000
0.998137 0.105951 0.000000
0.898203 0.025906 0.000000
0.777363 0.156633 0.000000
0.691008 0.026659 0.000000
0.413295 0.157007 0.000000
0.694475 0.165966 0.000000
0.901174 0.067397 0.000000
0.806875 0.067195 0.000000
0.938888 0.078990 0.000000
0.692717 0.112039 0.000000
0.611245 0.020907 0.000000
0.639226 0.063358 0.000000
0.495320 0.025607 0.000000
0.659799 0.070974 0.000000
0.554396 0.099955 0.000000
0.191144 0.092320 0.000000
0.613297 0.059856 0.000000
0.111410 0.157076 0.000000
0.150000 -0.075000 0.000000
0.150000 -0.050000 0.000000
0.150000 -0.025000 0.000000
0.150000 0.000000 0.000000
0.386896 0.080089 0.000000
0.974727 0.025235 0.000000
0.814786 0.110795 0.000000
0.457010 0.065052 0.000000
0.934673 0.058106 0.000000
0.181652 0.050036 0.000000
0.986091 0.080121 0.000000
0.575161 0.062549 0.000000
1.005660 0.066497 0.000000
0.906083 0.097930 0.000000
0.907409 0.048490 0.000000
0.792981 0.026934 0.000000
0.878284 0.039546 0.000000
0.879241 0.069502 0.000000
0.842026 0.043993 0.000000
0.715285 0.074707 0.000000
0.720301 0.023829 0.000000
0.755628 0.092764 0.000000
0.751536 0.068517 0.000000
0.476900 0.112908 0.000000
0.175000 -0.075000 0.000000
0.175000 -0.050000 0.000000
0.175000 -0.025000 0.000000
0.175000 0.000000 0.000000
0.040745 0.099235 0.000000
0.790623 0.142708 0.000000
0.974696 0.142470 0.000000
0.970459 0.122417 0.000000
0.968501 0.064684 0.000000
0.194039 0.135772 0.000000
0.922213 0.024223 0.000000
0.414232 0.046217 0.000000
0.465278 0.024063 0.000000
0.945346 0.025833 0.000000
0.727265 0.135122 0.000000
0.826709 0.101418 0.000000
0.657246 0.102530 0.000000
0.956800 0.044602 0.000000
0.987262 0.044114 0.000000
0.521687 0.043807 0.000000
1.001205 0.025069 0.000000
0.607407 0.115282 0.000000
0.400269 0.162026 0.000000
0.641672 0.149609 0.000000
0.200000 -0.075000 0.000000
0.200000 -0.050000 0.000000
0.200000 -0.025000 0.000000
0.200000 0.000000 0.000000
0.541543 0.085158 0.000000
0.151788 0.081276 0.000000
0.434479 0.089627 0.000000
0.919466 0.091657 0.000000
0.464242 0.046328 0.000000
0.531151 0.122816 0.000000
0.703751 0.093077 0.000000
0.973469 0.097592 0.000000
0.587000 0.148363 0.000000
0.193617 0.183320 0.000000
0.939032 0.139713 0.000000
0.818055 0.040378 0.000000
0.075796 0.020337 0.000000
0.563226 0.044971 0.000000
0.790844 0.111115 0.000000
0.219101 0.131208 0.000000
0.837018 0.072023 0.000000
0.547112 0.150306 0.000000
0.951989 0.096128 0.000000
0.772854 0.064086 0.000000
0.225000 -0.075000 0.000000
0.225000 -0.050000 0.000000
0.225000 -0.025000 0.000000
0.225000 0.000000 0.000000
0.439827 0.164288 0.000000
0.924637 0.279715 0.000000
0.716594 0.115052 0.000000
0.250570 0.072210 0.000000
0.226751 0.115739 0.000000
0.042954 0.160076 0.000000
0.646283 0.087814 0.000000
0.997955 0.127981 0.000000
0.746167 0.134017 0.000000
0.300700 0.136446 0.000000
0.806477 0.143679 0.000000
0.138750 0.138344 0.000000
0.437650 0.020532 0.000000
0.575973 0.085452 0.000000
0.173695 0.122297 0.000000
0.463400 0.108840 0.000000
0.653664 0.040607 0.000000
0.084150 0.037000 0.000000
0.406546 0.175742 0.000000
0.428390 0.045020 0.000000
0.250000 -0.075000 0.000000
0.250000 -0.050000 0.000000
0.250000 -0.025000 0.000000
0.250000 0.000000 0.000000
0.843993 0.090419 0.000000
0.573842 0.102455 0.000000
0.488055 0.175179 0.000000
0.487657 0.143150 0.000000
0.396074 0.101492 0.000000
0.605068 0.097577 0.000000
0.373133 0.153323 0.000000
0.364634 0.073623 0.000000
0.360204 0.058384 0.000000
0.700333 0.151885 0.000000
0.351751 0.104481 0.000000
0.058288 0.172025 0.000000
0.244334 0.139223 0.000000
0.666823 0.021900 0.000000
0.527410 0.073890 0.000000
0.428621 0.103187 0.000000
0.490805 0.084883 0.000000
0.859645 0.057671 0.000000
0.057090 0.069086 0.000000
0.739814 0.112680 0.000000
0.275000 -0.075000 0.000000
0.275000 -0.050000 0.000000
0.275000 -0.025000 0.000000
0.275000 0.000000 0.000000
0.300000 -0.075000 0.000000
0.300000 -0.050000 0.000000
0.300000 -0.025000 0.000000
0.300000 0.000000 0.000000
0.325000 -0.075000 0.000000
0.325000 -0.050000 0.000000
0.325000 -0.025000 0.000000
0.325000 0.000000 0.000000
0.350000 -0.075000 0.000000
0.350000 -0.050000 0.000000
0.350000 -0.025000 0.000000
0.350000 0.000000 0.000000
0.375000 -0.075000 0.000000
0.375000 -0.050000 0.000000
0.375000 -0.025000 0.000000
0.375000 0.000000 0.000000
0.400000 -0.075000 0.000000
0.400000 -0.050000 0.000000
0.400000 -0.025000 0.000000
0.400000 0.000000 0.000000
0.425000 -0.075000 0.000000
0.425000 -0.050000 0.000000
0.425000 -0.025000 0.000000
0.425000 0.000000 0.000000
0.450000 -0.075000 0.000000
0.450000 -0.050000 0.000000
0.450000 -0.025000 0.000000
0.450000 0.000000 0.000000
0.475000 -0.075000 0.000000
0.475000 -0.050000 0.000000
0.475000 -0.025000 0.000000
0.475000 0.000000 0.000000
0.500000 -0.075000 0.000000
0.500000 -0.050000 0.000000
0.500000 -0.025000 0.000000
0.500000 0.000000 0.000000
0.525000 -0.075000 0.000000
0.525000 -0.050000 0.000000
0.525000 -0.025000 0.000000
0.525000 0.000000 0.000000
0.550000 -0.075000 0.000000
0.550000 -0.050000 0.000000
0.550000 -0.025000 0.000000
0.550000 0.000000 0.000000
0.575000 -0.075000 0.000000
0.575000 -0.050000 0.000000
0.575000 -0.025000 0.000000
0.575000 0.000000 0.000000
0.600000 -0.075000 0.000000
0.600000 -0.050000 0.000000
0.600000 -0.025000 0.000000
0.600000 0.000000 0.000000
0.625000 -0.075000 0.000000
0.625000 -0.050000 0.000000
0.625000 -0.025000 0.000000
0.625000 0.000000 0.000000
0.650000 -0.075000 0.000000
0.650000 -0.050000 0.000000
0.650000 -0.025000 0.000000
0.650000 0.000000 0.000000
0.675000 -0.075000 0.000000
0.675000 -0.050000 0.000000
0.675000 -0.025000 0.000000
0.675000 0.000000 0.000000
0.700000 -0.075000 0.000000
0.700000 -0.050000 0.000000
0.700000 -0.025000 0.000000
0.700000 0.000000 0.000000
0.725000 -0.075000 0.000000
0.725000 -0.050000 0.000000
0.725000 -0.025000 0.000000
0.725000 0.000000 0.000000
0.750000 -0.075000 0.000000
0.750000 -0.050000 0.000000
0.750000 -0.025000 0.000000
0.750000 0.000000 0.000000
0.775000 -0.075000 0.000000
0.775000 -0.050000 0.000000
0.775000 -0.025000 0.000000
0.775000 0.000000 0.000000
0.800000 -0.075000 0.000000
0.800000 -0.050000 0.000000
0.800000 -0.025000 0.000000
0.800000 0.000000 0.000000
0.825000 -0.075000 0.000000
0.825000 -0.050000 0.000000
0.825000 -0.025000 0.000000
0.825000 0.000000 0.000000
0.850000 -0.075000 0.000000
0.850000 -0.050000 0.000000
0.850000 -0.025000 0.000000
0.850000 0.000000 0.000000
0.875000 -0.075000 0.000000
0.875000 -0.050000 0.000000
0.875000 -0.025000 0.000000
0.875000 0.000000 0.000000
0.900000 -0.075000 0.000000
0.900000 -0.050000 0.000000
0.900000 -0.025000 0.000000
0.900000 0.000000 0.000000
0.925000 -0.075000 0.000000
0.925000 -0.050000 0.000000
0.925000 -0.025000 0.000000
0.925000 0.000000 0.000000
0.950000 -0.075000 0.000000
0.950000 -0.050000 0.000000
0.950000 -0.025000 0.000000
0.950000 0.000000 0.000000
0.975000 -0.075000 0.000000
0.975000 -0.050000 0.000000
0.975000 -0.025000 0.000000
0.975000 0.000000 0.000000
1.000000 -0.075000 0.000000
1.000000 -0.050000 0.000000
1.000000 -0.025000 0.000000
1.000000 0.000000 0.000000
1.025000 -0.075000 0.000000
1.025000 -0.050000 0.000000
1.025000 -0.025000 0.000000
1.025000 0.000000 0.000000
1.025000 0.025000 0.000000
1.025000 0.050000 0.000000
1.025000 0.075000 0.000000
1.025000 0.100000 0.000000
1.025000 0.125000 0.000000
1.025000 0.150000 0.000000
1.025000 0.175000 0.000000
1.025000 0.200000 0.000000
1.025000 0.225000 0.000000
1.025000 0.250000 0.000000
1.025000 0.275000 0.000000
1.025000 0.300000 0.000000
1.025000 0.325000 0.000000
1.025000 0.350000 0.000000
1.025000 0.375000 0.000000
1.025000 0.400000 0.000000
1.025000 0.425000 0.000000
1.025000 0.450000 0.000000
1.025000 0.475000 0.000000
1.025000 0.500000 0.000000
1.025000 0.525000 0.000000
1.025000 0.550000 0.000000
1.025000 0.575000 0.000000
1.025000 0.600000 0.000000
1.050000 -0.075000 0.000000
1.050000 -0.050000 0.000000
1.050000 -0.025000 0.000000
1.050000 0.000000 0.000000
1.050000 0.025000 0.000000
1.050000 0.050000 0.000000
1.050000 0.075000 0.000000
1.050000 0.100000 0.000000
1.050000 0.125000 0.000000
1.050000 0.150000 0.000000
1.050000 0.175000 0.000000
1.050000 0.200000 0.000000
1.050000 0.225000 0.000000
1.050000 0.250000 0.000000
1.050000 0.275000 0.000000
1.050000 0.300000 0.000000
1.050000 0.325000 0.000000
1.050000 0.350000 0.000000
1.050000 0.375000 0.000000
1.050000 0.400000 0.000000
1.050000 0.425000 0.000000
1.050000 0.450000 0.000000
1.050000 0.475000 0.000000
1.050000 0.500000 0.000000
1.050000 0.525000 0.000000
1.050000 0.550000 0.000000
1.050000 0.575000 0.000000
1.050000 0.600000 0.000000
1.075000 -0.075000 0.000000
1.075000 -0.050000 0.000000
1.075000 -0.025000 0.000000
1.075000 0.000000 0.000000
1.075000 0.025000 0.000000
1.075000 0.050000 0.000000
1.075000 0.075000 0.000000
1.075000 0.100000 0.000000
1.075000 0.125000 0.000000
1.075000 0.150000 0.000000
1.075000 0.175000 0.000000
1.075000 0.200000 0.000000
1.075000 0.225000 0.000000
1.075000 0.250000 0.000000
1.075000 0.275000 0.000000
1.075000 0.300000 0.000000
1.075000 0.325000 0.000000
1.075000 0.350000 0.000000
1.075000 0.375000 0.000000
1.075000 0.400000 0.000000
1.075000 0.425000 0.000000
1.075000 0.450000 0.000000
1.075000 0.475000 0.000000
1.075000 0.500000 0.000000
1.075000 0.525000 0.000000
1.075000 0.550000 0.000000
1.075000 0.575000 0.000000
1.075000 0.600000 0.000000
1.100000 -0.075000 0.000000
1.100000 -0.050000 0.000000
1.100000 -0.025000 0.000000
1.100000 0.000000 0.000000
1.100000 0.025000 0.000000
1.100000 0.050000 0.000000
1.100000 0.075000 0.000000
1.100000 0.100000 0.000000
1.100000 0.125000 0.000000
1.100000 0.150000 0.000000
1.100000 0.175000 0.000000
1.100000 0.200000 0.000000
1.100000 0.225000 0.000000
1.100000 0.250000 0.000000
1.100000 0.275000 0.000000
1.100000 0.300000 0.000000
1.100000 0.325000 0.000000
1.100000 0.350000 0.000000
1.100000 0.375000 0.000000
1.100000 0.400000 0.000000
1.100000 0.425000 0.000000
1.100000 0.450000 0.000000
1.100000 0.475000 0.000000
1.100000 0.500000 0.000000
1.100000 0.525000 0.000000
1.100000 0.550000 0.000000
1.100000 0.575000 0.000000
1.100000 0.600000 0.000000
</DataArray>
</Points>
<PointData>
<DataArray NumberOfComponents='1' type='Int32' Name='ParticleType' format='ascii'>
3
3
3
3
3
3
3
3
3
3
3
3
3
3
3
3
3
3
3
3
3
3
3
3
3
3
2
2
3
3
3
3
3
3
3
3
3
3
3
3
3
3
3
3
3
3
3
3
3
3
3
3
3
3
2
2
3
3
2
2
2
2
2
2
2
2
2
2
2
2
2
2
2
2
2
2
2
2
2
2
2
2
2
2
3
3
2
2
2
2
2
2
2
2
2
2
2
2
2
2
2
2
2
2
2
2
2
2
2
2
2
2
3
3
2
2
0
0
0
0
0
0
0
0
0
0
0
0
0
0
0
0
0
0
0
0
3
3
2
2
0
0
0
0
0
0
0
0
0
0
0
0
0
0
0
0
0
0
0
0
3
3
2
2
0
0
0
0
0
0
0
0
0
0
0
0
0
0
0
0
0
0
0
0
3
3
2
2
0
0
0
0
0
0
0
0
0
0
0
0
0
0
0
0
0
0
0
0
3
3
2
2
0
0
0
0
0
0
0
0
0
0
0
0
0
0
0
0
0
0
0
0
3
3
2
2
0
0
0
0
0
0
0
0
0
0
0
0
0
0
0
0
0
0
0
0
3
3
2
2
0
0
0
0
0
0
0
0
0
0
0
0
0
0
0
0
0
0
0
0
3
3
2
2
0
0
0
0
0
0
0
0
0
0
0
0
0
0
0
0
0
0
0
0
3
3
2
2
0
0
0
0
0
0
0
0
0
0
0
0
0
0
0
0
0
0
0
0
3
3
2
2
0
0
0
0
0
0
0
0
0
0
0
0
0
0
0
0
0
0
0
0
3
3
2
2
3
3
2
2
3
3
2
2
3
3
2
2
3
3
2
2
3
3
2
2
3
3
2
2
3
3
2
2
3
3
2
2
3
3
2
2
3
3
2
2
3
3
2
2
3
3
2
2
3
3
2
2
3
3
2
2
3
3
2
2
3
3
2
2
3
3
2
2
3
3
2
2
3
3
2
2
3
3
2
2
3
3
2
2
3
3
2
2
3
3
2
2
3
3
2
2
3
3
2
2
3
3
2
2
3
3
2
2
3
3
2
2
3
3
2
2
3
3
2
2
2
2
2
2
2
2
2
2
2
2
2
2
2
2
2
2
2
2
2
2
2
2
2
2
3
3
2
2
2
2
2
2
2
2
2
2
2
2
2
2
2
2
2
2
2
2
2
2
2
2
2
2
3
3
3
3
3
3
3
3
3
3
3
3
3
3
3
3
3
3
3
3
3
3
3
3
3
3
2
2
3
3
3
3
3
3
3
3
3
3
3
3
3
3
3
3
3
3
3
3
3
3
3
3
3
3
2
2
</DataArray>
<DataArray NumberOfComponents='1' type='Float32' Name='Velocity' format='ascii'>
0.000000
0.000000
0.000000
0.000000
0.000000
0.000000
0.000000
0.000000
0.000000
0.000000
0.000000
0.000000
0.000000
0.000000
0.000000
0.000000
0.000000
0.000000
0.000000
0.000000
0.000000
0.000000
0.000000
0.000000
0.000000
0.000000
0.000000
0.000000
0.000000
0.000000
0.000000
0.000000
0.000000
0.000000
0.000000
0.000000
0.000000
0.000000
0.000000
0.000000
0.000000
0.000000
0.000000
0.000000
0.000000
0.000000
0.000000
0.000000
0.000000
0.000000
0.000000
0.000000
0.000000
0.000000
0.000000
0.000000
0.000000
0.000000
0.000000
0.000000
0.000000
0.000000
0.000000
0.000000
0.000000
0.000000
0.000000
0.000000
0.000000
0.000000
0.000000
0.000000
0.000000
0.000000
0.000000
0.000000
0.000000
0.000000
0.000000
0.000000
0.000000
0.000000
0.000000
0.000000
0.000000
0.000000
0.000000
0.000000
0.000000
0.000000
0.000000
0.000000
0.000000
0.000000
0.000000
0.000000
0.000000
0.000000
0.000000
0.000000
0.000000
0.000000
0.000000
0.000000
0.000000
0.000000
0.000000
0.000000
0.000000
0.000000
0.000000
0.000000
0.000000
0.000000
0.000000
0.000000
1.279213
0.272070
0.309602
0.136834
0.388393
0.636435
0.559061
0.610105
0.251379
1.766908
0.408914
1.545902
0.522801
0.441110
0.423129
0.947125
1.343776
0.324572
0.588770
0.249585
0.000000
0.000000
0.000000
0.000000
0.521653
1.273301
1.012742
0.332383
1.428487
0.719304
0.755419
0.537302
0.494699
0.645965
0.981517
0.710880
0.337591
1.052979
0.857691
0.666483
0.162952
0.812265
1.178036
0.596438
0.000000
0.000000
0.000000
0.000000
1.164531
0.920700
0.699010
0.614958
0.730316
0.456888
0.529813
0.345587
1.091573
0.468873
0.546762
1.236390
0.172067
0.758867
0.457464
1.311195
0.736589
1.075098
0.488713
0.406745
0.000000
0.000000
0.000000
0.000000
0.653846
0.872597
0.596919
0.387970
0.838823
0.467936
0.385105
1.027903
0.476607
0.329140
0.416990
0.734865
0.628608
0.589067
1.058697
0.512915
0.686320
1.914385
0.454726
0.996112
0.000000
0.000000
0.000000
0.000000
0.359183
0.397790
0.350596
0.182774
1.007115
0.639661
1.488258
0.788563
0.277319
0.270710
0.105395
0.830642
0.236208
0.766240
0.219653
0.905471
0.730959
1.328557
0.595305
1.436642
0.000000
0.000000
0.000000
0.000000
1.309148
0.325614
0.497680
0.717291
0.530142
0.396408
0.273767
0.473710
0.235400
0.418620
0.289690
0.319345
0.264545
0.774346
0.402318
0.525613
0.418756
0.340645
0.224016
0.962081
0.000000
0.000000
0.000000
0.000000
0.783121
0.776053
0.381007
0.206842
0.600546
1.840009
0.344159
0.420673
0.151186
0.294577
0.867036
0.454952
0.381946
0.265972
0.151800
0.560882
0.217119
0.920178
1.426811
1.025603
0.000000
0.000000
0.000000
0.000000
0.630277
0.753770
0.528658
0.519494
0.150224
1.305363
0.671839
0.455657
1.127999
1.628652
0.859857
0.535660
0.610247
0.726071
0.869045
1.556712
0.483918
0.476725
0.154059
0.456528
0.000000
0.000000
0.000000
0.000000
1.055313
4.473260
0.949149
0.362086
0.919200
1.966570
0.651871
0.527412
0.801721
0.944271
0.737841
1.653668
0.336310
1.214139
0.784441
0.999182
0.659864
1.136655
0.733967
0.339409
0.000000
0.000000
0.000000
0.000000
0.505932
1.002337
0.981745
0.825962
0.491961
0.864500
1.531817
0.775781
0.888424
0.816716
0.528586
0.213673
1.664050
0.534913
0.506526
0.408460
0.713664
0.231128
0.310578
1.060770
0.000000
0.000000
0.000000
0.000000
0.000000
0.000000
0.000000
0.000000
0.000000
0.000000
0.000000
0.000000
0.000000
0.000000
0.000000
0.000000
0.000000
0.000000
0.000000
0.000000
0.000000
0.000000
0.000000
0.000000
0.000000
0.000000
0.000000
0.000000
0.000000
0.000000
0.000000
0.000000
0.000000
0.000000
0.000000
0.000000
0.000000
0.000000
0.000000
0.000000
0.000000
0.000000
0.000000
0.000000
0.000000
0.000000
0.000000
0.000000
0.000000
0.000000
0.000000
0.000000
0.000000
0.000000
0.000000
0.000000
0.000000
0.000000
0.000000
0.000000
0.000000
0.000000
0.000000
0.000000
0.000000
0.000000
0.000000
0.000000
0.000000
0.000000
0.000000
0.000000
0.000000
0.000000
0.000000
0.000000
0.000000
0.000000
0.000000
0.000000
0.000000
0.000000
0.000000
0.000000
0.000000
0.000000
0.000000
0.000000
0.000000
0.000000
0.000000
0.000000
0.000000
0.000000
0.000000
0.000000
0.000000
0.000000
0.000000
0.000000
0.000000
0.000000
0.000000
0.000000
0.000000
0.000000
0.000000
0.000000
0.000000
0.000000
0.000000
0.000000
0.000000
0.000000
0.000000
0.000000
0.000000
0.000000
0.000000
0.000000
0.000000
0.000000
0.000000
0.000000
0.000000
0.000000
0.000000
0.000000
0.000000
0.000000
0.000000
0.000000
0.000000
0.000000
0.000000
0.000000
0.000000
0.000000
0.000000
0.000000
0.000000
0.000000
0.000000
0.000000
0.000000
0.000000
0.000000
0.000000
0.000000
0.000000
0.000000
0.000000
0.000000
0.000000
0.000000
0.000000
0.000000
0.000000
0.000000
0.000000
0.000000
0.000000
0.000000
0.000000
0.000000
0.000000
0.000000
0.000000
0.000000
0.000000
0.000000
0.000000
0.000000
0.000000
0.000000
0.000000
0.000000
0.000000
0.000000
0.000000
0.000000
0.000000
0.000000
0.000000
0.000000
0.000000
0.000000
0.000000
0.000000
0.000000
0.000000
0.000000
0.000000
0.000000
0.000000
0.000000
0.000000
0.000000
0.000000
0.000000
0.000000
0.000000
0.000000
0.000000
0.000000
0.000000
0.000000
0.000000
0.000000
0.000000
0.000000
0.000000
0.000000
0.000000
0.000000
0.000000
0.000000
0.000000
0.000000
0.000000
0.000000
0.000000
0.000000
0.000000
0.000000
0.000000
0.000000
0.000000
0.000000
0.000000
0.000000
0.000000
</DataArray>
<DataArray NumberOfComponents='1' type='Float32' Name='pressure' format='ascii'>
0.000000
0.000000
0.000000
0.000000
0.000000
0.000000
0.000000
0.000000
0.000000
0.000000
0.000000
0.000000
0.000000
0.000000
0.000000
0.000000
0.000000
0.000000
0.000000
0.000000
0.000000
0.000000
0.000000
0.000000
0.000000
0.000000
0.000000
0.000000
0.000000
0.000000
0.000000
0.000000
0.000000
0.000000
0.000000
0.000000
0.000000
0.000000
0.000000
0.000000
0.000000
0.000000
0.000000
0.000000
0.000000
0.000000
0.000000
0.000000
0.000000
0.000000
0.000000
0.000000
0.000000
0.000000
0.000000
0.000000
0.000000
0.000000
596.697083
1235.706909
2338.359619
6641.875488
7141.719238
6815.857422
7470.732910
3324.749268
0.000000
0.000000
0.000000
0.000000
0.000000
0.000000
0.000000
0.000000
0.000000
0.000000
0.000000
0.000000
0.000000
0.000000
0.000000
0.000000
0.000000
0.000000
0.000000
0.000000
272.208191
0.000000
0.000000
7520.062500
4900.954102
3427.781982
5717.488770
0.000000
0.000000
0.000000
0.000000
0.000000
0.000000
0.000000
0.000000
0.000000
0.000000
0.000000
0.000000
0.000000
0.000000
0.000000
0.000000
0.000000
0.000000
0.000000
0.000000
0.000000
0.000000
0.000000
0.000000
1010.374939
876.926270
2574.775146
0.000000
0.000000
0.000000
0.000000
232.651871
0.000000
1447.739136
0.000000
0.000000
520.091797
1607.663696
0.000000
0.000000
4794.808594
0.000000
3607.286133
0.000000
0.000000
144.364563
0.000000
0.000000
0.000000
0.000000
2408.987793
0.000000
0.000000
0.000000
147.019119
0.000000
0.000000
0.000000
0.000000
0.000000
0.000000
1679.934204
4040.338623
830.083252
81.731293
0.000000
2111.320068
0.000000
0.000000
3446.074707
2246.610596
27.214447
0.000000
3035.281250
2383.653320
0.000000
541.382812
332.898804
0.000000
226.931641
497.814728
1672.683105
0.000000
0.000000
0.000000
0.000000
0.000000
0.000000
2229.263916
0.000000
0.000000
0.000000
0.000000
2015.908203
3062.717529
0.000000
693.346436
1463.594360
0.000000
1550.468994
1010.850220
338.230072
0.000000
793.943176
1300.109375
1508.266357
0.000000
824.880676
1576.542480
0.000000
0.000000
0.000000
0.000000
1997.956055
0.000000
0.000000
0.000000
3086.020264
2572.310791
1095.140015
0.000000
0.000000
1420.990112
0.000000
1208.500000
0.000000
0.000000
768.454163
0.000000
0.000000
0.000000
1272.081665
697.498230
2520.704590
1994.194580
0.000000
334.000397
803.425049
0.000000
0.000000
0.000000
1336.414917
0.000000
0.000000
1351.623657
0.000000
0.000000
0.000000
1598.250000
2036.295044
0.000000
742.528931
0.000000
561.912537
428.111206
310.432983
0.000000
303.593628
0.000000
1893.909912
1215.744385
1075.641602
0.000000
0.000000
0.000000
2647.476074
1863.010742
0.000000
0.000000
0.000000
0.000000
477.450165
0.000000
737.050903
1625.732056
1819.798706
1270.818604
0.000000
82.679337
0.000000
1538.514282
1264.636841
1823.798828
917.302307
0.000000
0.000000
0.000000
0.000000
0.000000
1809.044922
893.008240
1105.827393
0.000000
0.000000
0.000000
2850.299561
0.000000
714.668579
1217.555908
0.000000
0.000000
0.000000
1094.487061
0.000000
1020.234314
0.000000
0.000000
574.049744
0.000000
0.000000
0.000000
0.000000
0.000000
85.415680
0.000000
0.000000
0.000000
0.000000
0.000000
0.000000
0.000000
919.353882
0.000000
0.000000
0.000000
0.000000
0.000000
1351.223999
1124.975098
0.000000
0.000000
1431.084839
3118.509033
0.000000
0.000000
0.000000
0.000000
0.000000
0.000000
0.000000
0.000000
0.000000
0.000000
0.000000
0.000000
0.000000
0.000000
3678.017334
0.000000
0.000000
0.000000
0.000000
2670.032471
0.000000
1715.077637
1295.349731
1969.498535
3325.566650
0.000000
0.000000
0.000000
1097.475464
1699.115967
0.000000
0.000000
0.000000
0.000000
0.000000
0.000000
1530.811646
2524.411621
0.000000
0.000000
1280.464355
852.998779
0.000000
0.000000
2293.525879
1808.470459
0.000000
0.000000
1120.983276
0.000000
0.000000
0.000000
2982.077881
1112.555908
0.000000
0.000000
3824.380615
2822.388672
0.000000
0.000000
2655.548340
2296.946045
0.000000
0.000000
2406.199219
2591.170410
0.000000
0.000000
3346.424805
2514.759521
0.000000
0.000000
3397.493408
1154.610840
0.000000
0.000000
3085.866943
1728.647949
0.000000
0.000000
3606.122803
3505.357666
0.000000
0.000000
3195.845215
1540.249023
0.000000
0.000000
2365.643555
1494.392090
0.000000
0.000000
2839.491455
3003.295410
0.000000
0.000000
860.747986
1087.208252
0.000000
0.000000
1427.165894
1315.104370
0.000000
0.000000
166.848923
207.585022
0.000000
0.000000
1606.164917
1896.946289
0.000000
0.000000
485.328949
0.000000
0.000000
0.000000
2753.846924
2383.618896
0.000000
0.000000
3005.640869
1579.112671
0.000000
0.000000
2469.060791
672.551880
0.000000
0.000000
1096.148071
1028.862549
0.000000
0.000000
1474.580444
1774.829224
0.000000
0.000000
881.490845
675.659058
0.000000
0.000000
1300.025757
1137.489502
0.000000
0.000000
1692.944214
2426.065918
0.000000
0.000000
1946.333374
2309.011230
1748.344482
455.311981
1695.031128
0.000000
0.000000
0.000000
0.000000
0.000000
0.000000
0.000000
0.000000
0.000000
0.000000
0.000000
0.000000
0.000000
0.000000
0.000000
0.000000
0.000000
0.000000
0.000000
0.000000
0.000000
0.000000
0.000000
2050.875732
2062.105469
2395.371582
2731.236084
3003.092041
0.000000
0.000000
0.000000
0.000000
0.000000
0.000000
0.000000
0.000000
0.000000
0.000000
0.000000
0.000000
0.000000
0.000000
0.000000
0.000000
0.000000
0.000000
0.000000
0.000000
0.000000
0.000000
0.000000
0.000000
0.000000
0.000000
0.000000
0.000000
0.000000
0.000000
0.000000
0.000000
0.000000
0.000000
0.000000
0.000000
0.000000
0.000000
0.000000
0.000000
0.000000
0.000000
0.000000
0.000000
0.000000
0.000000
0.000000
0.000000
0.000000
0.000000
0.000000
0.000000
0.000000
0.000000
0.000000
0.000000
0.000000
0.000000
0.000000
0.000000
0.000000
0.000000
0.000000
0.000000
0.000000
0.000000
0.000000
0.000000
0.000000
0.000000
0.000000
0.000000
0.000000
0.000000
0.000000
0.000000
0.000000
</DataArray>
</PointData>
<Cells>
<DataArray type='Int32' Name='connectivity' format='ascii'>
0
1
2
3
4
5
6
7
8
9
10
11
12
13
14
15
16
17
18
19
20
21
22
23
24
25
26
27
28
29
30
31
32
33
34
35
36
37
38
39
40
41
42
43
44
45
46
47
48
49
50
51
52
53
54
55
56
57
58
59
60
61
62
63
64
65
66
67
68
69
70
71
72
73
74
75
76
77
78
79
80
81
82
83
84
85
86
87
88
89
90
91
92
93
94
95
96
97
98
99
100
101
102
103
104
105
106
107
108
109
110
111
112
113
114
115
116
117
118
119
120
121
122
123
124
125
126
127
128
129
130
131
132
133
134
135
136
137
138
139
140
141
142
143
144
145
146
147
148
149
150
151
152
153
154
155
156
157
158
159
160
161
162
163
164
165
166
167
168
169
170
171
172
173
174
175
176
177
178
179
180
181
182
183
184
185
186
187
188
189
190
191
192
193
194
195
196
197
198
199
200
201
202
203
204
205
206
207
208
209
210
211
212
213
214
215
216
217
218
219
220
221
222
223
224
225
226
227
228
229
230
231
232
233
234
235
236
237
238
239
240
241
242
243
244
245
246
247
248
249
250
251
252
253
254
255
256
257
258
259
260
261
262
263
264
265
266
267
268
269
270
271
272
273
274
275
276
277
278
279
280
281
282
283
284
285
286
287
288
289
290
291
292
293
294
295
296
297
298
299
300
301
302
303
304
305
306
307
308
309
310
311
312
313
314
315
316