<?xml version='1.0' encoding='UTF-8'?>
<VTKFile xmlns='VTK' byte_order='LittleEndian' version='0.1' type='UnstructuredGrid'>
<UnstructuredGrid>
<Piece NumberOfCells='584' NumberOfPoints='584'>
<Points>
<DataArray NumberOfComponents='3' type='Float32' Name='Position' format='ascii'>
-0.075000 -0.075000 0.000000
-0.075000 -0.050000 0.000000
-0.075000 -0.025000 0.000000
-0.075000 0.000000 0.000000
-0.075000 0.025000 0.000000
-0.075000 0.050000 0.000000
-0.075000 0.075000 0.000000
-0.075000 0.100000 0.000000
-0.075000 0.125000 0.000000
-0.075000 0.150000 0.000000
-0.075000 0.175000 0.000000
-0.075000 0.200000 0.000000
-0.075000 0.225000 0.000000
-0.075000 0.250000 0.000000
-0.075000 0.275000 0.000000
-0.075000 0.300000 0.000000
-0.075000 0.325000 0.000000
-0.075000 0.350000 0.000000
-0.075000 0.375000 0.000000
-0.075000 0.400000 0.000000
-0.075000 0.425000 0.000000
-0.075000 0.450000 0.000000
-0.075000 0.475000 0.000000
-0.075000 0.500000 0.000000
-0.075000 0.525000 0.000000
-0.075000 0.550000 0.000000
-0.075000 0.575000 0.000000
-0.075000 0.600000 0.000000
-0.050000 -0.075000 0.000000
-0.050000 -0.050000 0.000000
-0.050000 -0.025000 0.000000
-0.050000 0.000000 0.000000
-0.050000 0.025000 0.000000
-0.050000 0.050000 0.000000
-0.050000 0.075000 0.000000
-0.050000 0.100000 0.000000
-0.050000 0.125000 0.000000
-0.050000 0.150000 0.000000
-0.050000 0.175000 0.000000
-0.050000 0.200000 0.000000
-0.050000 0.225000 0.000000
-0.050000 0.250000 0.000000
-0.050000 0.275000 0.000000
-0.050000 0.300000 0.000000
-0.050000 0.325000 0.000000
-0.050000 0.350000 0.000000
-0.050000 0.375000 0.000000
-0.050000 0.400000 0.000000
-0.050000 0.425000 0.000000
-0.050000 0.450000 0.000000
-0.050000 0.475000 0.000000
-0.050000 0.500000 0.000000
-0.050000 0.525000 0.000000
-0.050000 0.550000 0.000000
-0.050000 0.575000 0.000000
-0.050000 0.600000 0.000000
-0.025000 -0.075000 0.000000
-0.025000 -0.050000 0.000000
-0.025000 -0.025000 0.000000
-0.025000 0.000000 0.000000
-0.025000 0.025000 0.000000
-0.025000 0.050000 0.000000
-0.025000 0.075000 0.000000
-0.025000 0.100000 0.000000
-0.025000 0.125000 0.000000
-0.025000 0.150000 0.000000
-0.025000 0.175000 0.000000
-0.025000 0.200000 0.000000
-0.025000 0.225000 0.000000
-0.025000 0.250000 0.000000
-0.025000 0.275000 0.000000
-0.025000 0.300000 0.000000
-0.025000 0.325000 0.000000
-0.025000 0.350000 0.000000
-0.025000 0.375000 0.000000
-0.025000 0.400000 0.000000
-0.025000 0.425000 0.000000
-0.025000 0.450000 0.000000
-0.025000 0.475000 0.000000
-0.025000 0.500000 0.000000
-0.025000 0.525000 0.000000
-0.025000 0.550000 0.000000
-0.025000 0.575000 0.000000
-0.025000 0.600000 0.000000
0.000000 -0.075000 0.000000
0.000000 -0.050000 0.000000
0.000000 -0.025000 0.000000
0.000000 0.000000 0.000000
0.000000 0.025000 0.000000
0.000000 0.050000 0.000000
0.000000 0.075000 0.000000
0.000000 0.100000 0.000000
0.000000 0.125000 0.000000
0.000000 0.150000 0.000000
0.000000 0.175000 0.000000
0.000000 0.200000 0.000000
0.000000 0.225000 0.000000
0.000000 0.250000 0.000000
0.000000 0.275000 0.000000
0.000000 0.300000 0.000000
0.000000 0.325000 0.000000
0.000000 0.350000 0.000000
0.000000 0.375000 0.000000
0.000000 0.400000 0.000000
0.000000 0.425000 0.000000
0.000000 0.450000 0.000000
0.000000 0.475000 0.000000
0.000000 0.500000 0.000000
0.000000 0.525000 0.000000
0.000000 0.550000 0.000000
0.000000 0.575000 0.000000
0.000000 0.600000 0.000000
0.025000 -0.075000 0.000000
0.025000 -0.050000 0.000000
0.025000 -0.025000 0.000000
0.025000 0.000000 0.000000
0.230819 0.070655 0.000000
0.150683 0.140075 0.000000
0.221483 0.045130 0.000000
0.216909 0.023151 0.000000
0.248545 0.046432 0.000000
0.147879 0.061787 0.000000
0.321167 0.024399 0.000000
0.245563 0.089491 0.000000
0.193877 0.121598 0.000000
0.166671 0.210735 0.000000
0.246622 0.024364 0.000000
0.128077 0.086085 0.000000
0.187531 0.022751 0.000000
0.156753 0.024660 0.000000
0.139828 0.118105 0.000000
0.085199 0.040088 0.000000
0.026680 0.146021 0.000000
0.098593 0.024530 0.000000
0.038248 0.101970 0.000000
0.204477 0.065449 0.000000
0.050000 -0.075000 0.000000
0.050000 -0.050000 0.000000
0.050000 -0.025000 0.000000
0.050000 0.000000 0.000000
0.108181 0.174113 0.000000
0.112798 0.104802 0.000000
0.086894 0.155992 0.000000
0.036815 0.022138 0.000000
0.019354 0.087886 0.000000
0.424476 0.068998 0.000000
0.217356 0.129041 0.000000
0.581967 0.022558 0.000000
0.088177 0.131171 0.000000
0.240279 0.229752 0.000000
0.134904 0.041292 0.000000
0.248271 0.143371 0.000000
0.032752 0.165084 0.000000
0.244461 0.241841 0.000000
0.165789 0.044066 0.000000
0.055708 0.044340 0.000000
0.221031 0.106761 0.000000
0.269639 0.084698 0.000000
0.095846 0.205724 0.000000
0.099643 0.059727 0.000000
0.075000 -0.075000 0.000000
0.075000 -0.050000 0.000000
0.075000 -0.025000 0.000000
0.075000 0.000000 0.000000
0.155103 0.087031 0.000000
0.177029 0.133061 0.000000
0.404890 0.094902 0.000000
0.359622 0.021557 0.000000
0.400088 0.123783 0.000000
0.568893 0.112227 0.000000
0.544204 0.105988 0.000000
0.060693 0.089605 0.000000
0.297819 0.108355 0.000000
0.555935 0.046507 0.000000
0.434491 0.023382 0.000000
0.096812 0.092758 0.000000
0.244184 0.113577 0.000000
0.247194 0.166247 0.000000
0.295702 0.082755 0.000000
0.080376 0.067331 0.000000
0.162603 0.110025 0.000000
0.053185 0.071029 0.000000
0.182076 0.091684 0.000000
0.192708 0.044651 0.000000
0.100000 -0.075000 0.000000
0.100000 -0.050000 0.000000
0.100000 -0.025000 0.000000
0.100000 0.000000 0.000000
0.479550 0.023476 0.000000
0.325948 0.208241 0.000000
0.471748 0.110601 0.000000
0.781842 0.023428 0.000000
0.259541 0.067214 0.000000
0.711097 0.025474 0.000000
0.538290 0.067311 0.000000
0.281408 0.043721 0.000000
0.656840 0.021886 0.000000
0.656866 0.044596 0.000000
0.452788 0.029645 0.000000
0.310370 0.129948 0.000000
0.489000 0.075655 0.000000
0.624212 0.050954 0.000000
0.065610 0.170116 0.000000
0.272320 0.024400 0.000000
0.508992 0.063984 0.000000
0.296143 0.059709 0.000000
0.333020 0.103711 0.000000
0.136681 0.210554 0.000000
0.125000 -0.075000 0.000000
0.125000 -0.050000 0.000000
0.125000 -0.025000 0.000000
0.125000 0.000000 0.000000
0.688753 0.047154 0.000000
0.596560 0.069514 0.000000
0.981139 0.063794 0.000000
0.838044 0.022567 0.000000
0.511964 0.083611 0.000000
0.605201 0.029056 0.000000
0.093586 0.188240 0.000000
0.445583 0.059457 0.000000
0.781627 0.069607 0.000000
0.724334 0.064039 0.000000
0.819071 0.069271 0.000000
0.478743 0.045405 0.000000
0.500111 0.034693 0.000000
0.348680 0.148778 0.000000
0.407141 0.026303 0.000000
0.374496 0.147037 0.000000
0.219190 0.179932 0.000000
0.175228 0.072774 0.000000
0.384163 0.129939 0.000000
0.069670 0.127547 0.000000
0.150000 -0.075000 0.000000
0.150000 -0.050000 0.000000
0.150000 -0.025000 0.000000
0.150000 0.000000 0.000000
0.178445 0.179557 0.000000
0.958188 0.024595 0.000000
0.640722 0.061301 0.000000
0.326633 0.050388 0.000000
0.888004 0.027587 0.000000
0.206458 0.088475 0.000000
0.901691 0.053910 0.000000
0.434316 0.152150 0.000000
0.951408 0.060893 0.000000
0.457105 0.137487 0.000000
0.927511 0.024511 0.000000
0.688761 0.024529 0.000000
0.853798 0.067393 0.000000
0.802697 0.082449 0.000000
0.754978 0.023567 0.000000
0.567039 0.069247 0.000000
0.627296 0.023383 0.000000
0.597024 0.085943 0.000000
0.618078 0.092641 0.000000
0.281608 0.154891 0.000000
0.175000 -0.075000 0.000000
0.175000 -0.050000 0.000000
0.175000 -0.025000 0.000000
0.175000 0.000000 0.000000
0.122050 0.125124 0.000000
0.523463 0.107021 0.000000
0.864824 0.055303 0.000000
0.769233 0.055531 0.000000
0.991319 0.019693 0.000000
0.147060 0.166095 0.000000
0.866492 0.025396 0.000000
0.369277 0.049198 0.000000
0.395315 0.059169 0.000000
0.907616 0.033936 0.000000
0.466495 0.067382 0.000000
0.744508 0.077705 0.000000
0.352058 0.098935 0.000000
0.943502 0.039174 0.000000
0.981852 0.041802 0.000000
0.415648 0.046756 0.000000
1.004635 0.047722 0.000000
0.450898 0.081221 0.000000
0.112159 0.153771 0.000000
0.356077 0.123012 0.000000
0.200000 -0.075000 0.000000
0.200000 -0.050000 0.000000
0.200000 -0.025000 0.000000
0.200000 0.000000 0.000000
0.331178 0.130236 0.000000
0.123722 0.023363 0.000000
0.282756 0.118531 0.000000
0.811824 0.024108 0.000000
0.384327 0.074420 0.000000
0.324112 0.187470 0.000000
0.590903 0.046317 0.000000
0.977348 0.077239 0.000000
0.336744 0.163209 0.000000
0.077349 0.106777 0.000000
0.788658 0.044472 0.000000
0.637088 0.079704 0.000000
0.063261 0.024684 0.000000
0.435602 0.164899 0.000000
0.520666 0.021838 0.000000
0.191410 0.186523 0.000000
0.701622 0.063152 0.000000
0.356654 0.203407 0.000000
0.843852 0.045530 0.000000
0.672781 0.061993 0.000000
0.225000 -0.075000 0.000000
0.225000 -0.050000 0.000000
0.225000 -0.025000 0.000000
0.225000 0.000000 0.000000
0.337126 0.071526 0.000000
0.818459 0.050586 0.000000
0.519659 0.124131 0.000000
0.258088 0.210169 0.000000
0.051333 0.173180 0.000000
0.087495 0.216061 0.000000
0.430380 0.135028 0.000000
0.889381 0.073308 0.000000
0.530327 0.041395 0.000000
0.032918 0.120260 0.000000
0.553227 0.082278 0.000000
0.214268 0.194679 0.000000
0.383817 0.026563 0.000000
0.426000 0.098605 0.000000
0.121219 0.064729 0.000000
0.197481 0.153701 0.000000
0.497053 0.108915 0.000000
0.020650 0.039911 0.000000
0.262322 0.126383 0.000000
0.346938 0.042317 0.000000
0.250000 -0.075000 0.000000
0.250000 -0.050000 0.000000
0.250000 -0.025000 0.000000
0.250000 0.000000 0.000000
0.733180 0.031015 0.000000
0.338679 0.188471 0.000000
0.242134 0.210453 0.000000
0.316015 0.079947 0.000000
0.302641 0.026827 0.000000
0.293173 0.174317 0.000000
0.132240 0.165768 0.000000
0.280090 0.188588 0.000000
0.264253 0.182263 0.000000
0.438032 0.111235 0.000000
0.225993 0.150042 0.000000
0.050437 0.143813 0.000000
0.174694 0.156695 0.000000
0.554606 0.026628 0.000000
0.385439 0.105256 0.000000
0.360645 0.077024 0.000000
0.299968 0.149326 0.000000
0.745293 0.049138 0.000000
0.032408 0.062091 0.000000
0.471739 0.124264 0.000000
0.275000 -0.075000 0.000000
0.275000 -0.050000 0.000000
0.275000 -0.025000 0.000000
0.275000 0.000000 0.000000
0.300000 -0.075000 0.000000
0.300000 -0.050000 0.000000
0.300000 -0.025000 0.000000
0.300000 0.000000 0.000000
0.325000 -0.075000 0.000000
0.325000 -0.050000 0.000000
0.325000 -0.025000 0.000000
0.325000 0.000000 0.000000
0.350000 -0.075000 0.000000
0.350000 -0.050000 0.000000
0.350000 -0.025000 0.000000
0.350000 0.000000 0.000000
0.375000 -0.075000 0.000000
0.375000 -0.050000 0.000000
0.375000 -0.025000 0.000000
0.375000 0.000000 0.000000
0.400000 -0.075000 0.000000
0.400000 -0.050000 0.000000
0.400000 -0.025000 0.000000
0.400000 0.000000 0.000000
0.425000 -0.075000 0.000000
0.425000 -0.050000 0.000000
0.425000 -0.025000 0.000000
0.425000 0.000000 0.000000
0.450000 -0.075000 0.000000
0.450000 -0.050000 0.000000
0.450000 -0.025000 0.000000
0.450000 0.000000 0.000000
0.475000 -0.075000 0.000000
0.475000 -0.050000 0.000000
0.475000 -0.025000 0.000000
0.475000 0.000000 0.000000
0.500000 -0.075000 0.000000
0.500000 -0.050000 0.000000
0.500000 -0.025000 0.000000
0.500000 0.000000 0.000000
0.525000 -0.075000 0.000000
0.525000 -0.050000 0.000000
0.525000 -0.025000 0.000000
0.525000 0.000000 0.000000
0.550000 -0.075000 0.000000
0.550000 -0.050000 0.000000
0.550000 -0.025000 0.000000
0.550000 0.000000 0.000000
0.575000 -0.075000 0.000000
0.575000 -0.050000 0.000000
0.575000 -0.025000 0.000000
0.575000 0.000000 0.000000
0.600000 -0.075000 0.000000
0.600000 -0.050000 0.000000
0.600000 -0.025000 0.000000
0.600000 0.000000 0.000000
0.625000 -0.075000 0.000000
0.625000 -0.050000 0.000000
0.625000 -0.025000 0.000000
0.625000 0.000000 0.000000
0.650000 -0.075000 0.000000
0.650000 -0.050000 0.000000
0.650000 -0.025000 0.000000
0.650000 0.000000 0.000000
0.675000 -0.075000 0.000000
0.675000 -0.050000 0.000000
0.675000 -0.025000 0.000000
0.675000 0.000000 0.000000
0.700000 -0.075000 0.000000
0.700000 -0.050000 0.000000
0.700000 -0.025000 0.000000
0.700000 0.000000 0.000000
0.725000 -0.075000 0.000000
0.725000 -0.050000 0.000000
0.725000 -0.025000 0.000000
0.725000 0.000000 0.000000
0.750000 -0.075000 0.000000
0.750000 -0.050000 0.000000
0.750000 -0.025000 0.000000
0.750000 0.000000 0.000000
0.775000 -0.075000 0.000000
0.775000 -0.050000 0.000000
0.775000 -0.025000 0.000000
0.775000 0.000000 0.000000
0.800000 -0.075000 0.000000
0.800000 -0.050000 0.000000
0.800000 -0.025000 0.000000
0.800000 0.000000 0.000000
0.825000 -0.075000 0.000000
0.825000 -0.050000 0.000000
0.825000 -0.025000 0.000000
0.825000 0.000000 0.000000
0.850000 -0.075000 0.000000
0.850000 -0.050000 0.000000
0.850000 -0.025000 0.000000
0.850000 0.000000 0.000000
0.875000 -0.075000 0.000000
0.875000 -0.050000 0.000000
0.875000 -0.025000 0.000000
0.875000 0.000000 0.000000
0.900000 -0.075000 0.000000
0.900000 -0.050000 0.000000
0.900000 -0.025000 0.000000
0.900000 0.000000 0.000000
0.925000 -0.075000 0.000000
0.925000 -0.050000 0.000000
0.925000 -0.025000 0.000000
0.925000 0.000000 0.000000
0.950000 -0.075000 0.000000
0.950000 -0.050000 0.000000
0.950000 -0.025000 0.000000
0.950000 0.000000 0.000000
0.975000 -0.075000 0.000000
0.975000 -0.050000 0.000000
0.975000 -0.025000 0.000000
0.975000 0.000000 0.000000
1.000000 -0.075000 0.000000
1.000000 -0.050000 0.000000
1.000000 -0.025000 0.000000
1.000000 0.000000 0.000000
1.025000 -0.075000 0.000000
1.025000 -0.050000 0.000000
1.025000 -0.025000 0.000000
1.025000 0.000000 0.000000
1.025000 0.025000 0.000000
1.025000 0.050000 0.000000
1.025000 0.075000 0.000000
1.025000 0.100000 0.000000
1.025000 0.125000 0.000000
1.025000 0.150000 0.000000
1.025000 0.175000 0.000000
1.025000 0.200000 0.000000
1.025000 0.225000 0.000000
1.025000 0.250000 0.000000
1.025000 0.275000 0.000000
1.025000 0.300000 0.000000
1.025000 0.325000 0.000000
1.025000 0.350000 0.000000
1.025000 0.375000 0.000000
1.025000 0.400000 0.000000
1.025000 0.425000 0.000000
1.025000 0.450000 0.000000
1.025000 0.475000 0.000000
1.025000 0.500000 0.000000
1.025000 0.525000 0.000000
1.025000 0.550000 0.000000
1.025000 0.575000 0.000000
1.025000 0.600000 0.000000
1.050000 -0.075000 0.000000
1.050000 -0.050000 0.000000
1.050000 -0.025000 0.000000
1.050000 0.000000 0.000000
1.050000 0.025000 0.000000
1.050000 0.050000 0.000000
1.050000 0.075000 0.000000
1.050000 0.100000 0.000000
1.050000 0.125000 0.000000
1.050000 0.150000 0.000000
1.050000 0.175000 0.000000
1.050000 0.200000 0.000000
1.050000 0.225000 0.000000
1.050000 0.250000 0.000000
1.050000 0.275000 0.000000
1.050000 0.300000 0.000000
1.050000 0.325000 0.000000
1.050000 0.350000 0.000000
1.050000 0.375000 0.000000
1.050000 0.400000 0.000000
1.050000 0.425000 0.000000
1.050000 0.450000 0.000000
1.050000 0.475000 0.000000
1.050000 0.500000 0.000000
1.050000 0.525000 0.000000
1.050000 0.550000 0.000000
1.050000 0.575000 0.000000
1.050000 0.600000 0.000000
1.075000 -0.075000 0.000000
1.075000 -0.050000 0.000000
1.075000 -0.025000 0.000000
1.075000 0.000000 0.000000
1.075000 0.025000 0.000000
1.075000 0.050000 0.000000
1.075000 0.075000 0.000000
1.075000 0.100000 0.000000
1.075000 0.125000 0.000000
1.075000 0.150000 0.000000
1.075000 0.175000 0.000000
1.075000 0.200000 0.000000
1.075000 0.225000 0.000000
1.075000 0.250000 0.000000
1.075000 0.275000 0.000000
1.075000 0.300000 0.000000
1.075000 0.325000 0.000000
1.075000 0.350000 0.000000
1.075000 0.375000 0.000000
1.075000 0.400000 0.000000
1.075000 0.425000 0.000000
1.075000 0.450000 0.000000
1.075000 0.475000 0.000000
1.075000 0.500000 0.000000
1.075000 0.525000 0.000000
1.075000 0.550000 0.000000
1.075000 0.575000 0.000000
1.075000 0.600000 0.000000
1.100000 -0.075000 0.000000
1.100000 -0.050000 0.000000
1.100000 -0.025000 0.000000
1.100000 0.000000 0.000000
1.100000 0.025000 0.000000
1.100000 0.050000 0.000000
1.100000 0.075000 0.000000
1.100000 0.100000 0.000000
1.100000 0.125000 0.000000
1.100000 0.150000 0.000000
1.100000 0.175000 0.000000
1.100000 0.200000 0.000000
1.100000 0.225000 0.000000
1.100000 0.250000 0.000000
1.100000 0.275000 0.000000
1.100000 0.300000 0.000000
1.100000 0.325000 0.000000
1.100000 0.350000 0.000000
1.100000 0.375000 0.000000
1.100000 0.400000 0.000000
1.100000 0.425000 0.000000
1.100000 0.450000 0.000000
1.100000 0.475000 0.000000
1.100000 0.500000 0.000000
1.100000 0.525000 0.000000
1.100000 0.550000 0.000000
1.100000 0.575000 0.000000
1.100000 0.600000 0.000000
</DataArray>
</Points>
<PointData>
<DataArray NumberOfComponents='1' type='Int32' Name='ParticleType' format='ascii'>
3
3
3
3
3
3
3
3
3
3
3
3
3
3
3
3
3
3
3
3
3
3
3
3
3
3
2
2
3
3
3
3
3
3
3
3
3
3
3
3
3
3
3
3
3
3
3
3
3
3
3
3
3
3
2
2
3
3
2
2
2
2
2
2
2
2
2
2
2
2
2
2
2
2
2
2
2
2
2
2
2
2
2
2
3
3
2
2
2
2
2
2
2
2
2
2
2
2
2
2
2
2
2
2
2
2
2
2
2
2
2
2
3
3
2
2
0
0
0
0
0
0
0
0
0
0
0
0
0
0
0
0
0
0
0
0
3
3
2
2
0
0
0
0
0
0
0
0
0
0
0
0
0
0
0
0
0
0
0
0
3
3
2
2
0
0
0
0
0
0
0
0
0
0
0
0
0
0
0
0
0
0
0
0
3
3
2
2
0
0
0
0
0
0
0
0
0
0
0
0
0
0
0
0
0
0
0
0
3
3
2
2
0
0
0
0
0
0
0
0
0
0
0
0
0
0
0
0
0
0
0
0
3
3
2
2
0
0
0
0
0
0
0
0
0
0
0
0
0
0
0
0
0
0
0
0
3
3
2
2
0
0
0
0
0
0
0
0
0
0
0
0
0
0
0
0
0
0
0
0
3
3
2
2
0
0
0
0
0
0
0
0
0
0
0
0
0
0
0
0
0
0
0
0
3
3
2
2
0
0
0
0
0
0
0
0
0
0
0
0
0
0
0
0
0
0
0
0
3
3
2
2
0
0
0
0
0
0
0
0
0
0
0
0
0
0
0
0
0
0
0
0
3
3
2
2
3
3
2
2
3
3
2
2
3
3
2
2
3
3
2
2
3
3
2
2
3
3
2
2
3
3
2
2
3
3
2
2
3
3
2
2
3
3
2
2
3
3
2
2
3
3
2
2
3
3
2
2
3
3
2
2
3
3
2
2
3
3
2
2
3
3
2
2
3
3
2
2
3
3
2
2
3
3
2
2
3
3
2
2
3
3
2
2
3
3
2
2
3
3
2
2
3
3
2
2
3
3
2
2
3
3
2
2
3
3
2
2
3
3
2
2
3
3
2
2
2
2
2
2
2
2
2
2
2
2
2
2
2
2
2
2
2
2
2
2
2
2
2
2
3
3
2
2
2
2
2
2
2
2
2
2
2
2
2
2
2
2
2
2
2
2
2
2
2
2
2
2
3
3
3
3
3
3
3
3
3
3
3
3
3
3
3
3
3
3
3
3
3
3
3
3
3
3
2
2
3
3
3
3
3
3
3
3
3
3
3
3
3
3
3
3
3
3
3
3
3
3
3
3
3
3
2
2
</DataArray>
<DataArray NumberOfComponents='1' type='Float32' Name='Velocity' format='ascii'>
0.000000
0.000000
0.000000
0.000000
0.000000
0.000000
0.000000
0.000000
0.000000
0.000000
0.000000
0.000000
0.000000
0.000000
0.000000
0.000000
0.000000
0.000000
0.000000
0.000000
0.000000
0.000000
0.000000
0.000000
0.000000
0.000000
0.000000
0.000000
0.000000
0.000000
0.000000
0.000000
0.000000
0.000000
0.000000
0.000000
0.000000
0.000000
0.000000
0.000000
0.000000
0.000000
0.000000
0.000000
0.000000
0.000000
0.000000
0.000000
0.000000
0.000000
0.000000
0.000000
0.000000
0.000000
0.000000
0.000000
0.000000
0.000000
0.000000
0.000000
0.000000
0.000000
0.000000
0.000000
0.000000
0.000000
0.000000
0.000000
0.000000
0.000000
0.000000
0.000000
0.000000
0.000000
0.000000
0.000000
0.000000
0.000000
0.000000
0.000000
0.000000
0.000000
0.000000
0.000000
0.000000
0.000000
0.000000
0.000000
0.000000
0.000000
0.000000
0.000000
0.000000
0.000000
0.000000
0.000000
0.000000
0.000000
0.000000
0.000000
0.000000
0.000000
0.000000
0.000000
0.000000
0.000000
0.000000
0.000000
0.000000
0.000000
0.000000
0.000000
0.000000
0.000000
0.000000
0.000000
0.500814
0.504947
0.715087
0.240207
0.435442
0.513413
0.371924
0.420582
0.454167
0.268085
0.377470
0.680788
0.420112
0.533791
0.181172
0.429762
0.223653
0.189975
0.147175
0.490495
0.000000
0.000000
0.000000
0.000000
0.192941
0.718168
0.451485
0.185445
0.099807
0.345993
0.245210
0.312006
0.296121
0.718241
0.440037
0.386875
0.490146
0.877857
0.594769
0.138239
0.616535
0.323519
0.359556
0.286850
0.000000
0.000000
0.000000
0.000000
0.388883
0.077596
0.438440
0.325873
0.508231
0.638293
0.401586
0.624456
0.259744
0.204566
0.356721
0.455777
0.236742
0.601700
0.695515
0.416721
0.251600
0.089749
0.207772
0.626968
0.000000
0.000000
0.000000
0.000000
0.132544
0.392676
0.343484
0.182771
0.572976
0.136856
0.443243
0.379483
0.101481
0.286135
0.393812
0.388566
0.460605
0.234942
0.490430
0.254427
0.253001
0.543113
0.491474
0.248048
0.000000
0.000000
0.000000
0.000000
0.350049
0.322116
0.131729
0.131956
0.128309
0.356198
0.548952
0.461496
0.405363
0.168680
0.199069
0.166394
0.357137
0.299051
0.476630
0.528841
0.151286
0.585409
0.186189
0.505630
0.000000
0.000000
0.000000
0.000000
0.188749
0.250120
0.360780
0.565732
0.227080
0.366465
0.233371
0.562859
0.341310
0.552998
0.115332
0.299976
0.149512
0.344683
0.226365
0.144980
0.207274
0.308185
0.083402
0.514625
0.000000
0.000000
0.000000
0.000000
0.173650
0.358235
0.087633
0.341980
0.171101
0.460255
0.143261
0.411526
0.410068
0.112758
0.371506
0.075451
0.454862
0.351128
0.160784
0.330652
0.174292
0.210455
0.418207
0.214273
0.000000
0.000000
0.000000
0.000000
0.258791
0.303797
0.469980
0.154399
0.722598
0.523965
0.090436
0.047084
0.244541
0.169320
0.070956
0.297986
0.164145
0.404779
0.178364
0.499385
0.202572
0.442980
0.174377
0.211684
0.000000
0.000000
0.000000
0.000000
0.661129
0.100405
0.541976
1.086955
0.375348
0.203314
0.437646
0.334793
0.110622
0.351390
0.235602
0.303668
0.445460
0.367689
0.566240
0.456771
0.213397
0.239651
0.554226
0.498595
0.000000
0.000000
0.000000
0.000000
0.161309
0.642620
1.057233
0.549408
0.444217
0.249076
0.367634
0.800306
0.625976
0.298511
0.594692
0.244948
0.146642
0.353052
0.475593
0.565047
0.604055
0.356655
0.225542
0.311322
0.000000
0.000000
0.000000
0.000000
0.000000
0.000000
0.000000
0.000000
0.000000
0.000000
0.000000
0.000000
0.000000
0.000000
0.000000
0.000000
0.000000
0.000000
0.000000
0.000000
0.000000
0.000000
0.000000
0.000000
0.000000
0.000000
0.000000
0.000000
0.000000
0.000000
0.000000
0.000000
0.000000
0.000000
0.000000
0.000000
0.000000
0.000000
0.000000
0.000000
0.000000
0.000000
0.000000
0.000000
0.000000
0.000000
0.000000
0.000000
0.000000
0.000000
0.000000
0.000000
0.000000
0.000000
0.000000
0.000000
0.000000
0.000000
0.000000
0.000000
0.000000
0.000000
0.000000
0.000000
0.000000
0.000000
0.000000
0.000000
0.000000
0.000000
0.000000
0.000000
0.000000
0.000000
0.000000
0.000000
0.000000
0.000000
0.000000
0.000000
0.000000
0.000000
0.000000
0.000000
0.000000
0.000000
0.000000
0.000000
0.000000
0.000000
0.000000
0.000000
0.000000
0.000000
0.000000
0.000000
0.000000
0.000000
0.000000
0.000000
0.000000
0.000000
0.000000
0.000000
0.000000
0.000000
0.000000
0.000000
0.000000
0.000000
0.000000
0.000000
0.000000
0.000000
0.000000
0.000000
0.000000
0.000000
0.000000
0.000000
0.000000
0.000000
0.000000
0.000000
0.000000
0.000000
0.000000
0.000000
0.000000
0.000000
0.000000
0.000000
0.000000
0.000000
0.000000
0.000000
0.000000
0.000000
0.000000
0.000000
0.000000
0.000000
0.000000
0.000000
0.000000
0.000000
0.000000
0.000000
0.000000
0.000000
0.000000
0.000000
0.000000
0.000000
0.000000
0.000000
0.000000
0.000000
0.000000
0.000000
0.000000
0.000000
0.000000
0.000000
0.000000
0.000000
0.000000
0.000000
0.000000
0.000000
0.000000
0.000000
0.000000
0.000000
0.000000
0.000000
0.000000
0.000000
0.000000
0.000000
0.000000
0.000000
0.000000
0.000000
0.000000
0.000000
0.000000
0.000000
0.000000
0.000000
0.000000
0.000000
0.000000
0.000000
0.000000
0.000000
0.000000
0.000000
0.000000
0.000000
0.000000
0.000000
0.000000
0.000000
0.000000
0.000000
0.000000
0.000000
0.000000
0.000000
0.000000
0.000000
0.000000
0.000000
0.000000
0.000000
0.000000
0.000000
0.000000
0.000000
0.000000
0.000000
0.000000
0.000000
0.000000
0.000000
0.000000
0.000000
0.000000
0.000000
0.000000
0.000000
</DataArray>
<DataArray NumberOfComponents='1' type='Float32' Name='pressure' format='ascii'>
0.000000
0.000000
0.000000
0.000000
0.000000
0.000000
0.000000
0.000000
0.000000
0.000000
0.000000
0.000000
0.000000
0.000000
0.000000
0.000000
0.000000
0.000000
0.000000
0.000000
0.000000
0.000000
0.000000
0.000000
0.000000
0.000000
0.000000
0.000000
0.000000
0.000000
0.000000
0.000000
0.000000
0.000000
0.000000
0.000000
0.000000
0.000000
0.000000
0.000000
0.000000
0.000000
0.000000
0.000000
0.000000
0.000000
0.000000
0.000000
0.000000
0.000000
0.000000
0.000000
0.000000
0.000000
0.000000
0.000000
0.000000
0.000000
664.264893
932.968506
2244.503662
3455.845947
3805.118896
3092.741455
0.000000
0.000000
0.000000
0.000000
0.000000
0.000000
0.000000
0.000000
0.000000
0.000000
0.000000
0.000000
0.000000
0.000000
0.000000
0.000000
0.000000
0.000000
0.000000
0.000000
0.000000
0.000000
620.283386
0.000000
302.121368
2458.749268
2634.940918
1019.605164
0.000000
0.000000
0.000000
0.000000
0.000000
0.000000
0.000000
0.000000
0.000000
0.000000
0.000000
0.000000
0.000000
0.000000
0.000000
0.000000
0.000000
0.000000
0.000000
0.000000
0.000000
0.000000
1187.788330
0.000000
312.102814
0.000000
601.599243
1605.864014
1007.166443
1092.521973
414.879608
68.275574
0.000000
0.000000
1343.589355
69.403015
1449.895020
672.189026
936.542603
720.589355
0.000000
685.146729
441.569244
1118.050537
0.000000
0.000000
1545.757202
1105.281250
358.834503
1360.326904
0.000000
1076.936035
2160.081543
0.000000
1669.249023
918.585815
0.000000
0.000000
998.817505
0.000000
0.000000
0.000000
886.474426
487.410278
984.284729
146.205246
0.000000
839.617004
0.000000
0.000000
703.588440
0.000000
0.000000
2013.802612
0.000000
745.935730
0.000000
0.000000
0.000000
903.309204
504.101929
1408.299927
1099.630981
717.741333
1206.208618
0.000000
799.761841
0.000000
0.000000
1307.596802
2059.483643
639.793579
0.000000
0.000000
1487.871582
1316.810791
1665.909790
0.000000
138.342194
876.995117
1640.674316
219.384842
696.608459
260.038727
0.000000
230.576736
91.682755
323.547821
0.000000
650.760864
0.000000
678.602051
0.000000
0.000000
0.000000
0.000000
0.000000
0.000000
2136.920410
2811.046631
744.966980
0.000000
0.000000
758.073853
553.812927
1231.002808
0.000000
1038.598999
0.000000
0.000000
0.000000
686.357788
665.013977
0.000000
533.015320
0.000000
0.000000
1158.138062
153.063873
637.642761
0.000000
0.000000
1527.552856
701.755554
135.263474
0.000000
2067.243896
0.000000
0.000000
514.053772
0.000000
838.443054
0.000000
0.000000
0.000000
2281.216064
0.000000
0.000000
1339.649902
0.000000
721.905945
0.000000
0.000000
507.423767
0.000000
0.000000
1782.354248
1009.221436
0.000000
374.767639
0.000000
146.271912
452.918945
0.000000
0.000000
0.000000
881.107605
0.000000
307.982788
0.000000
0.000000
0.000000
762.330994
0.000000
0.000000
0.000000
471.675049
519.648071
0.000000
0.000000
2327.554688
1498.322144
0.000000
1382.410156
900.417664
0.000000
0.000000
0.000000
0.000000
0.000000
0.000000
0.000000
1084.988159
0.000000
1806.297363
0.000000
2276.857178
0.000000
0.000000
0.000000
598.042542
0.000000
0.000000
0.000000
2025.070557
1476.094116
1606.140747
0.000000
0.000000
0.000000
0.000000
0.000000
0.000000
0.000000
0.000000
0.000000
0.000000
0.000000
501.514130
1199.988525
821.895569
0.000000
0.000000
1542.836304
725.665588
417.261902
0.000000
0.000000
1487.026611
1562.346802
1685.626831
0.000000
0.000000
214.550323
308.939941
0.000000
1213.524902
0.000000
240.785828
60.920826
0.000000
202.750137
1115.878784
0.000000
0.000000
164.837143
0.000000
0.000000
0.000000
0.000000
0.000000
0.000000
958.664856
512.996582
0.000000
0.000000
0.000000
148.300339
0.000000
0.000000
660.987854
0.000000
0.000000
0.000000
1645.012085
122.256050
0.000000
0.000000
1412.062866
1908.464111
0.000000
0.000000
439.510742
517.932068
0.000000
0.000000
1174.010376
1743.465942
0.000000
0.000000
678.936279
332.193848
0.000000
0.000000
1385.505493
1285.906372
0.000000
0.000000
643.651733
0.000000
0.000000
0.000000
2017.869019
1737.454224
0.000000
0.000000
480.653900
0.000000
0.000000
0.000000
2010.954468
1563.446411
0.000000
0.000000
1625.064697
2179.562012
0.000000
0.000000
2716.846191
2731.074463
0.000000
0.000000
3012.643555
2672.532959
0.000000
0.000000
1923.500366
788.917175
0.000000
0.000000
1265.445923
1578.339844
0.000000
0.000000
417.558441
0.000000
0.000000
0.000000
1713.587402
2019.114380
0.000000
0.000000
1757.472168
1891.221191
0.000000
0.000000
1224.658936
631.666687
0.000000
0.000000
1283.831543
965.793091
0.000000
0.000000
0.000000
482.984253
0.000000
0.000000
0.000000
0.000000
0.000000
0.000000
0.000000
0.000000
0.000000
0.000000
0.000000
0.000000
0.000000
0.000000
0.000000
0.000000
0.000000
0.000000
1121.919312
0.000000
0.000000
0.000000
2321.040527
1946.016479
0.000000
0.000000
543.481628
0.000000
0.000000
0.000000
0.000000
0.000000
0.000000
0.000000
0.000000
0.000000
0.000000
0.000000
0.000000
0.000000
0.000000
0.000000
0.000000
0.000000
0.000000
0.000000
0.000000
0.000000
0.000000
0.000000
0.000000
0.000000
0.000000
0.000000
269.704071
93.947571
0.000000
1522.129028
0.000000
0.000000
0.000000
0.000000
0.000000
0.000000
0.000000
0.000000
0.000000
0.000000
0.000000
0.000000
0.000000
0.000000
0.000000
0.000000
0.000000
0.000000
0.000000
0.000000
0.000000
0.000000
0.000000
0.000000
0.000000
0.000000
0.000000
0.000000
0.000000
0.000000
0.000000
0.000000
0.000000
0.000000
0.000000
0.000000
0.000000
0.000000
0.000000
0.000000
0.000000
0.000000
0.000000
0.000000
0.000000
0.000000
0.000000
0.000000
0.000000
0.000000
0.000000
0.000000
0.000000
0.000000
0.000000
0.000000
0.000000
0.000000
0.000000
0.000000
0.000000
0.000000
0.000000
0.000000
0.000000
0.000000
0.000000
0.000000
0.000000
0.000000
0.000000
0.000000
0.000000
0.000000
0.000000
0.000000
0.000000
0.000000
</DataArray>
</PointData>
<Cells>
<DataArray type='Int32' Name='connectivity' format='ascii'>
0
1
2
3
4
5
6
7
8
9
10
11
12
13
14
15
16
17
18
19
20
21
22
23
24
25
26
27
28
29
30
31
32
33
34
35
36
37
38
39
40
41
42
43
44
45
46
47
48
49
50
51
52
53
54
55
56
57
58
59
60
61
62
63
64
65
66
67
68
69
70
71
72
73
74
75
76
77
78
79
80
81
82
83
84
85
86
87
88
89
90
91
92
93
94
95
96
97
98
99
100
101
102
103
104
105
106
107
108
109
110
111
112
113
114
115
116
117
118
119
120
121
122
123
124
125
126
127
128
129
130
131
132
133
134
135
136
137
138
139
140
141
142
143
144
145
146
147
148
149
150
151
152
153
154
155
156
157
158
159
160
161
162
163
164
165
166
167
168
169
170
171
172
173
174
175
176
177
178
179
180
181
182
183
184
185
186
187
188
189
190
191
192
193
194
195
196
197
198
199
200
201
202
203
204
205
206
207
208
209
210
211
212
213
214
215
216
217
218
219
220
221
222
223
224
225
226
227
228
229
230
231
232
233
234
235
236
237
238
239
240
241
242
243
244
245
246
247
248
249
250
251
252
253
254
255
256
257
258
259
260
261
262
263
264
265
266
267
268
269
270
271
272
273
274
275
276
277
278
279
280
281
282
283
284
285
286
287
288
289
290
291
292
293
294
295
296
297
298
299
300
301
302
303
304
305
306
307
308
309
310
311
312
313
314
315
316
317
318
319
320
321
322
323
324
325
326