<?xml version='1.0' encoding='UTF-8'?>
<VTKFile xmlns='VTK' byte_order='LittleEndian' version='0.1' type='UnstructuredGrid'>
<UnstructuredGrid>
<Piece NumberOfCells='584' NumberOfPoints='584'>
<Points>
<DataArray NumberOfComponents='3' type='Float32' Name='Position' format='ascii'>
-0.075000 -0.075000 0.000000
-0.075000 -0.050000 0.000000
-0.075000 -0.025000 0.000000
-0.075000 0.000000 0.000000
-0.075000 0.025000 0.000000
-0.075000 0.050000 0.000000
-0.075000 0.075000 0.000000
-0.075000 0.100000 0.000000
-0.075000 0.125000 0.000000
-0.075000 0.150000 0.000000
-0.075000 0.175000 0.000000
-0.075000 0.200000 0.000000
-0.075000 0.225000 0.000000
-0.075000 0.250000 0.000000
-0.075000 0.275000 0.000000
-0.075000 0.300000 0.000000
-0.075000 0.325000 0.000000
-0.075000 0.350000 0.000000
-0.075000 0.375000 0.000000
-0.075000 0.400000 0.000000
-0.075000 0.425000 0.000000
-0.075000 0.450000 0.000000
-0.075000 0.475000 0.000000
-0.075000 0.500000 0.000000
-0.075000 0.525000 0.000000
-0.075000 0.550000 0.000000
-0.075000 0.575000 0.000000
-0.075000 0.600000 0.000000
-0.050000 -0.075000 0.000000
-0.050000 -0.050000 0.000000
-0.050000 -0.025000 0.000000
-0.050000 0.000000 0.000000
-0.050000 0.025000 0.000000
-0.050000 0.050000 0.000000
-0.050000 0.075000 0.000000
-0.050000 0.100000 0.000000
-0.050000 0.125000 0.000000
-0.050000 0.150000 0.000000
-0.050000 0.175000 0.000000
-0.050000 0.200000 0.000000
-0.050000 0.225000 0.000000
-0.050000 0.250000 0.000000
-0.050000 0.275000 0.000000
-0.050000 0.300000 0.000000
-0.050000 0.325000 0.000000
-0.050000 0.350000 0.000000
-0.050000 0.375000 0.000000
-0.050000 0.400000 0.000000
-0.050000 0.425000 0.000000
-0.050000 0.450000 0.000000
-0.050000 0.475000 0.000000
-0.050000 0.500000 0.000000
-0.050000 0.525000 0.000000
-0.050000 0.550000 0.000000
-0.050000 0.575000 0.000000
-0.050000 0.600000 0.000000
-0.025000 -0.075000 0.000000
-0.025000 -0.050000 0.000000
-0.025000 -0.025000 0.000000
-0.025000 0.000000 0.000000
-0.025000 0.025000 0.000000
-0.025000 0.050000 0.000000
-0.025000 0.075000 0.000000
-0.025000 0.100000 0.000000
-0.025000 0.125000 0.000000
-0.025000 0.150000 0.000000
-0.025000 0.175000 0.000000
-0.025000 0.200000 0.000000
-0.025000 0.225000 0.000000
-0.025000 0.250000 0.000000
-0.025000 0.275000 0.000000
-0.025000 0.300000 0.000000
-0.025000 0.325000 0.000000
-0.025000 0.350000 0.000000
-0.025000 0.375000 0.000000
-0.025000 0.400000 0.000000
-0.025000 0.425000 0.000000
-0.025000 0.450000 0.000000
-0.025000 0.475000 0.000000
-0.025000 0.500000 0.000000
-0.025000 0.525000 0.000000
-0.025000 0.550000 0.000000
-0.025000 0.575000 0.000000
-0.025000 0.600000 0.000000
0.000000 -0.075000 0.000000
0.000000 -0.050000 0.000000
0.000000 -0.025000 0.000000
0.000000 0.000000 0.000000
0.000000 0.025000 0.000000
0.000000 0.050000 0.000000
0.000000 0.075000 0.000000
0.000000 0.100000 0.000000
0.000000 0.125000 0.000000
0.000000 0.150000 0.000000
0.000000 0.175000 0.000000
0.000000 0.200000 0.000000
0.000000 0.225000 0.000000
0.000000 0.250000 0.000000
0.000000 0.275000 0.000000
0.000000 0.300000 0.000000
0.000000 0.325000 0.000000
0.000000 0.350000 0.000000
0.000000 0.375000 0.000000
0.000000 0.400000 0.000000
0.000000 0.425000 0.000000
0.000000 0.450000 0.000000
0.000000 0.475000 0.000000
0.000000 0.500000 0.000000
0.000000 0.525000 0.000000
0.000000 0.550000 0.000000
0.000000 0.575000 0.000000
0.000000 0.600000 0.000000
0.025000 -0.075000 0.000000
0.025000 -0.050000 0.000000
0.025000 -0.025000 0.000000
0.025000 0.000000 0.000000
0.164574 0.074447 0.000000
0.232470 0.043380 0.000000
0.160825 0.041376 0.000000
0.187164 0.026225 0.000000
0.292178 0.026491 0.000000
0.083538 0.072234 0.000000
0.368564 0.024053 0.000000
0.242916 0.023445 0.000000
0.211946 0.021235 0.000000
0.068961 0.149956 0.000000
0.269354 0.024958 0.000000
0.092107 0.144269 0.000000
0.151709 0.023507 0.000000
0.043214 0.048563 0.000000
0.101676 0.075807 0.000000
0.045661 0.025543 0.000000
0.117757 0.110017 0.000000
0.100060 0.035461 0.000000
0.083343 0.113090 0.000000
0.128465 0.024154 0.000000
0.050000 -0.075000 0.000000
0.050000 -0.050000 0.000000
0.050000 -0.025000 0.000000
0.050000 0.000000 0.000000
0.291976 0.107892 0.000000
0.255115 0.240103 0.000000
0.305272 0.172555 0.000000
0.022251 0.046053 0.000000
0.024902 0.135460 0.000000
0.528591 0.044367 0.000000
0.239588 0.093319 0.000000
0.670117 0.047764 0.000000
0.295854 0.084248 0.000000
0.317306 0.123309 0.000000
0.063391 0.098934 0.000000
0.326395 0.044767 0.000000
0.094476 0.095238 0.000000
0.264844 0.122881 0.000000
0.130942 0.061807 0.000000
0.039167 0.086102 0.000000
0.204414 0.047700 0.000000
0.277026 0.057168 0.000000
0.117484 0.132854 0.000000
0.120515 0.046183 0.000000
0.075000 -0.075000 0.000000
0.075000 -0.050000 0.000000
0.075000 -0.025000 0.000000
0.075000 0.000000 0.000000
0.248710 0.107715 0.000000
0.179821 0.110316 0.000000
0.476012 0.047696 0.000000
0.392824 0.031467 0.000000
0.660273 0.100985 0.000000
0.732465 0.025424 0.000000
0.748065 0.042412 0.000000
0.056262 0.135188 0.000000
0.597129 0.086815 0.000000
0.722822 0.058825 0.000000
0.514009 0.023797 0.000000
0.255410 0.141327 0.000000
0.260447 0.049793 0.000000
0.316078 0.102338 0.000000
0.314081 0.028017 0.000000
0.134767 0.104913 0.000000
0.266836 0.090204 0.000000
0.029625 0.066968 0.000000
0.221266 0.073079 0.000000
0.206827 0.068479 0.000000
0.100000 -0.075000 0.000000
0.100000 -0.050000 0.000000
0.100000 -0.025000 0.000000
0.100000 0.000000 0.000000
0.572264 0.032621 0.000000
0.492771 0.077365 0.000000
0.591202 0.043556 0.000000
0.856280 0.022795 0.000000
0.299838 0.056509 0.000000
0.821665 0.025541 0.000000
0.762078 0.097579 0.000000
0.361937 0.042163 0.000000
0.764025 0.022182 0.000000
0.787070 0.049035 0.000000
0.553550 0.020609 0.000000
0.496048 0.105107 0.000000
0.677702 0.065443 0.000000
0.697462 0.046131 0.000000
0.328037 0.148969 0.000000
0.340269 0.024843 0.000000
0.625001 0.026600 0.000000
0.386722 0.113871 0.000000
0.458440 0.081064 0.000000
0.314542 0.080315 0.000000
0.125000 -0.075000 0.000000
0.125000 -0.050000 0.000000
0.125000 -0.025000 0.000000
0.125000 0.000000 0.000000
0.791143 0.093330 0.000000
0.858995 0.089601 0.000000
1.004002 0.104264 0.000000
0.893600 0.025350 0.000000
0.758008 0.149000 0.000000
0.680811 0.023385 0.000000
0.385954 0.155022 0.000000
0.678674 0.161607 0.000000
0.893510 0.071215 0.000000
0.803300 0.071200 0.000000
0.941846 0.081925 0.000000
0.677146 0.107493 0.000000
0.604830 0.023579 0.000000
0.621622 0.063671 0.000000
0.490955 0.025648 0.000000
0.644290 0.070251 0.000000
0.540203 0.106034 0.000000
0.166464 0.092215 0.000000
0.600935 0.063994 0.000000
0.085539 0.166102 0.000000
0.150000 -0.075000 0.000000
0.150000 -0.050000 0.000000
0.150000 -0.025000 0.000000
0.150000 0.000000 0.000000
0.364651 0.066121 0.000000
0.970269 0.026637 0.000000
0.806900 0.108166 0.000000
0.437779 0.064926 0.000000
0.924946 0.061682 0.000000
0.180119 0.049981 0.000000
0.981517 0.077623 0.000000
0.567783 0.063497 0.000000
1.004034 0.061515 0.000000
0.898938 0.093337 0.000000
0.910080 0.050518 0.000000
0.788175 0.025922 0.000000
0.876428 0.036413 0.000000
0.866296 0.076797 0.000000
0.839490 0.037305 0.000000
0.707723 0.069079 0.000000
0.711081 0.024029 0.000000
0.746099 0.089698 0.000000
0.747955 0.066677 0.000000
0.457671 0.114658 0.000000
0.175000 -0.075000 0.000000
0.175000 -0.050000 0.000000
0.175000 -0.025000 0.000000
0.175000 0.000000 0.000000
0.036482 0.114830 0.000000
0.775703 0.136507 0.000000
0.971000 0.134562 0.000000
0.965600 0.122902 0.000000
0.964653 0.056437 0.000000
0.160855 0.136489 0.000000
0.915655 0.025858 0.000000
0.406253 0.040958 0.000000
0.463041 0.022315 0.000000
0.942105 0.022125 0.000000
0.712612 0.127414 0.000000
0.819724 0.097508 0.000000
0.644707 0.101182 0.000000
0.951308 0.043240 0.000000
0.990942 0.043623 0.000000
0.507922 0.048178 0.000000
0.998086 0.023306 0.000000
0.589461 0.115550 0.000000
0.368708 0.150484 0.000000
0.621415 0.144328 0.000000
0.200000 -0.075000 0.000000
0.200000 -0.050000 0.000000
0.200000 -0.025000 0.000000
0.200000 0.000000 0.000000
0.530441 0.083782 0.000000
0.146615 0.076163 0.000000
0.424303 0.082046 0.000000
0.911956 0.085126 0.000000
0.459458 0.049138 0.000000
0.508355 0.133690 0.000000
0.692403 0.085417 0.000000
0.973220 0.092338 0.000000
0.565116 0.140960 0.000000
0.161976 0.188998 0.000000
0.927023 0.125354 0.000000
0.807242 0.043586 0.000000
0.065087 0.020635 0.000000
0.552827 0.047259 0.000000
0.772625 0.113824 0.000000
0.188645 0.135065 0.000000
0.827519 0.067081 0.000000
0.538337 0.144521 0.000000
0.950902 0.094189 0.000000
0.766760 0.062031 0.000000
0.225000 -0.075000 0.000000
0.225000 -0.050000 0.000000
0.225000 -0.025000 0.000000
0.225000 0.000000 0.000000
0.420696 0.153989 0.000000
0.923290 0.188202 0.000000
0.698271 0.111324 0.000000
0.245163 0.072763 0.000000
0.209324 0.120016 0.000000
0.051621 0.188266 0.000000
0.631401 0.087731 0.000000
0.995693 0.120627 0.000000
0.732707 0.124243 0.000000
0.281966 0.135209 0.000000
0.796011 0.131397 0.000000
0.112359 0.156207 0.000000
0.429575 0.022192 0.000000
0.552228 0.079939 0.000000
0.157461 0.121216 0.000000
0.443744 0.112808 0.000000
0.641096 0.042836 0.000000
0.085335 0.039537 0.000000
0.394405 0.166604 0.000000
0.424726 0.040957 0.000000
0.250000 -0.075000 0.000000
0.250000 -0.050000 0.000000
0.250000 -0.025000 0.000000
0.250000 0.000000 0.000000
0.836357 0.085926 0.000000
0.553657 0.104783 0.000000
0.468567 0.175520 0.000000
0.471605 0.137189 0.000000
0.386837 0.095931 0.000000
0.587052 0.098290 0.000000
0.343560 0.142985 0.000000
0.352367 0.083558 0.000000
0.344277 0.063670 0.000000
0.684272 0.150169 0.000000
0.342848 0.107681 0.000000
0.072803 0.172903 0.000000
0.211020 0.134909 0.000000
0.655740 0.025031 0.000000
0.515662 0.071241 0.000000
0.432022 0.095933 0.000000
0.478712 0.087329 0.000000
0.859261 0.053039 0.000000
0.061662 0.073309 0.000000
0.720224 0.109545 0.000000
0.275000 -0.075000 0.000000
0.275000 -0.050000 0.000000
0.275000 -0.025000 0.000000
0.275000 0.000000 0.000000
0.300000 -0.075000 0.000000
0.300000 -0.050000 0.000000
0.300000 -0.025000 0.000000
0.300000 0.000000 0.000000
0.325000 -0.075000 0.000000
0.325000 -0.050000 0.000000
0.325000 -0.025000 0.000000
0.325000 0.000000 0.000000
0.350000 -0.075000 0.000000
0.350000 -0.050000 0.000000
0.350000 -0.025000 0.000000
0.350000 0.000000 0.000000
0.375000 -0.075000 0.000000
0.375000 -0.050000 0.000000
0.375000 -0.025000 0.000000
0.375000 0.000000 0.000000
0.400000 -0.075000 0.000000
0.400000 -0.050000 0.000000
0.400000 -0.025000 0.000000
0.400000 0.000000 0.000000
0.425000 -0.075000 0.000000
0.425000 -0.050000 0.000000
0.425000 -0.025000 0.000000
0.425000 0.000000 0.000000
0.450000 -0.075000 0.000000
0.450000 -0.050000 0.000000
0.450000 -0.025000 0.000000
0.450000 0.000000 0.000000
0.475000 -0.075000 0.000000
0.475000 -0.050000 0.000000
0.475000 -0.025000 0.000000
0.475000 0.000000 0.000000
0.500000 -0.075000 0.000000
0.500000 -0.050000 0.000000
0.500000 -0.025000 0.000000
0.500000 0.000000 0.000000
0.525000 -0.075000 0.000000
0.525000 -0.050000 0.000000
0.525000 -0.025000 0.000000
0.525000 0.000000 0.000000
0.550000 -0.075000 0.000000
0.550000 -0.050000 0.000000
0.550000 -0.025000 0.000000
0.550000 0.000000 0.000000
0.575000 -0.075000 0.000000
0.575000 -0.050000 0.000000
0.575000 -0.025000 0.000000
0.575000 0.000000 0.000000
0.600000 -0.075000 0.000000
0.600000 -0.050000 0.000000
0.600000 -0.025000 0.000000
0.600000 0.000000 0.000000
0.625000 -0.075000 0.000000
0.625000 -0.050000 0.000000
0.625000 -0.025000 0.000000
0.625000 0.000000 0.000000
0.650000 -0.075000 0.000000
0.650000 -0.050000 0.000000
0.650000 -0.025000 0.000000
0.650000 0.000000 0.000000
0.675000 -0.075000 0.000000
0.675000 -0.050000 0.000000
0.675000 -0.025000 0.000000
0.675000 0.000000 0.000000
0.700000 -0.075000 0.000000
0.700000 -0.050000 0.000000
0.700000 -0.025000 0.000000
0.700000 0.000000 0.000000
0.725000 -0.075000 0.000000
0.725000 -0.050000 0.000000
0.725000 -0.025000 0.000000
0.725000 0.000000 0.000000
0.750000 -0.075000 0.000000
0.750000 -0.050000 0.000000
0.750000 -0.025000 0.000000
0.750000 0.000000 0.000000
0.775000 -0.075000 0.000000
0.775000 -0.050000 0.000000
0.775000 -0.025000 0.000000
0.775000 0.000000 0.000000
0.800000 -0.075000 0.000000
0.800000 -0.050000 0.000000
0.800000 -0.025000 0.000000
0.800000 0.000000 0.000000
0.825000 -0.075000 0.000000
0.825000 -0.050000 0.000000
0.825000 -0.025000 0.000000
0.825000 0.000000 0.000000
0.850000 -0.075000 0.000000
0.850000 -0.050000 0.000000
0.850000 -0.025000 0.000000
0.850000 0.000000 0.000000
0.875000 -0.075000 0.000000
0.875000 -0.050000 0.000000
0.875000 -0.025000 0.000000
0.875000 0.000000 0.000000
0.900000 -0.075000 0.000000
0.900000 -0.050000 0.000000
0.900000 -0.025000 0.000000
0.900000 0.000000 0.000000
0.925000 -0.075000 0.000000
0.925000 -0.050000 0.000000
0.925000 -0.025000 0.000000
0.925000 0.000000 0.000000
0.950000 -0.075000 0.000000
0.950000 -0.050000 0.000000
0.950000 -0.025000 0.000000
0.950000 0.000000 0.000000
0.975000 -0.075000 0.000000
0.975000 -0.050000 0.000000
0.975000 -0.025000 0.000000
0.975000 0.000000 0.000000
1.000000 -0.075000 0.000000
1.000000 -0.050000 0.000000
1.000000 -0.025000 0.000000
1.000000 0.000000 0.000000
1.025000 -0.075000 0.000000
1.025000 -0.050000 0.000000
1.025000 -0.025000 0.000000
1.025000 0.000000 0.000000
1.025000 0.025000 0.000000
1.025000 0.050000 0.000000
1.025000 0.075000 0.000000
1.025000 0.100000 0.000000
1.025000 0.125000 0.000000
1.025000 0.150000 0.000000
1.025000 0.175000 0.000000
1.025000 0.200000 0.000000
1.025000 0.225000 0.000000
1.025000 0.250000 0.000000
1.025000 0.275000 0.000000
1.025000 0.300000 0.000000
1.025000 0.325000 0.000000
1.025000 0.350000 0.000000
1.025000 0.375000 0.000000
1.025000 0.400000 0.000000
1.025000 0.425000 0.000000
1.025000 0.450000 0.000000
1.025000 0.475000 0.000000
1.025000 0.500000 0.000000
1.025000 0.525000 0.000000
1.025000 0.550000 0.000000
1.025000 0.575000 0.000000
1.025000 0.600000 0.000000
1.050000 -0.075000 0.000000
1.050000 -0.050000 0.000000
1.050000 -0.025000 0.000000
1.050000 0.000000 0.000000
1.050000 0.025000 0.000000
1.050000 0.050000 0.000000
1.050000 0.075000 0.000000
1.050000 0.100000 0.000000
1.050000 0.125000 0.000000
1.050000 0.150000 0.000000
1.050000 0.175000 0.000000
1.050000 0.200000 0.000000
1.050000 0.225000 0.000000
1.050000 0.250000 0.000000
1.050000 0.275000 0.000000
1.050000 0.300000 0.000000
1.050000 0.325000 0.000000
1.050000 0.350000 0.000000
1.050000 0.375000 0.000000
1.050000 0.400000 0.000000
1.050000 0.425000 0.000000
1.050000 0.450000 0.000000
1.050000 0.475000 0.000000
1.050000 0.500000 0.000000
1.050000 0.525000 0.000000
1.050000 0.550000 0.000000
1.050000 0.575000 0.000000
1.050000 0.600000 0.000000
1.075000 -0.075000 0.000000
1.075000 -0.050000 0.000000
1.075000 -0.025000 0.000000
1.075000 0.000000 0.000000
1.075000 0.025000 0.000000
1.075000 0.050000 0.000000
1.075000 0.075000 0.000000
1.075000 0.100000 0.000000
1.075000 0.125000 0.000000
1.075000 0.150000 0.000000
1.075000 0.175000 0.000000
1.075000 0.200000 0.000000
1.075000 0.225000 0.000000
1.075000 0.250000 0.000000
1.075000 0.275000 0.000000
1.075000 0.300000 0.000000
1.075000 0.325000 0.000000
1.075000 0.350000 0.000000
1.075000 0.375000 0.000000
1.075000 0.400000 0.000000
1.075000 0.425000 0.000000
1.075000 0.450000 0.000000
1.075000 0.475000 0.000000
1.075000 0.500000 0.000000
1.075000 0.525000 0.000000
1.075000 0.550000 0.000000
1.075000 0.575000 0.000000
1.075000 0.600000 0.000000
1.100000 -0.075000 0.000000
1.100000 -0.050000 0.000000
1.100000 -0.025000 0.000000
1.100000 0.000000 0.000000
1.100000 0.025000 0.000000
1.100000 0.050000 0.000000
1.100000 0.075000 0.000000
1.100000 0.100000 0.000000
1.100000 0.125000 0.000000
1.100000 0.150000 0.000000
1.100000 0.175000 0.000000
1.100000 0.200000 0.000000
1.100000 0.225000 0.000000
1.100000 0.250000 0.000000
1.100000 0.275000 0.000000
1.100000 0.300000 0.000000
1.100000 0.325000 0.000000
1.100000 0.350000 0.000000
1.100000 0.375000 0.000000
1.100000 0.400000 0.000000
1.100000 0.425000 0.000000
1.100000 0.450000 0.000000
1.100000 0.475000 0.000000
1.100000 0.500000 0.000000
1.100000 0.525000 0.000000
1.100000 0.550000 0.000000
1.100000 0.575000 0.000000
1.100000 0.600000 0.000000
</DataArray>
</Points>
<PointData>
<DataArray NumberOfComponents='1' type='Int32' Name='ParticleType' format='ascii'>
3
3
3
3
3
3
3
3
3
3
3
3
3
3
3
3
3
3
3
3
3
3
3
3
3
3
2
2
3
3
3
3
3
3
3
3
3
3
3
3
3
3
3
3
3
3
3
3
3
3
3
3
3
3
2
2
3
3
2
2
2
2
2
2
2
2
2
2
2
2
2
2
2
2
2
2
2
2
2
2
2
2
2
2
3
3
2
2
2
2
2
2
2
2
2
2
2
2
2
2
2
2
2
2
2
2
2
2
2
2
2
2
3
3
2
2
0
0
0
0
0
0
0
0
0
0
0
0
0
0
0
0
0
0
0
0
3
3
2
2
0
0
0
0
0
0
0
0
0
0
0
0
0
0
0
0
0
0
0
0
3
3
2
2
0
0
0
0
0
0
0
0
0
0
0
0
0
0
0
0
0
0
0
0
3
3
2
2
0
0
0
0
0
0
0
0
0
0
0
0
0
0
0
0
0
0
0
0
3
3
2
2
0
0
0
0
0
0
0
0
0
0
0
0
0
0
0
0
0
0
0
0
3
3
2
2
0
0
0
0
0
0
0
0
0
0
0
0
0
0
0
0
0
0
0
0
3
3
2
2
0
0
0
0
0
0
0
0
0
0
0
0
0
0
0
0
0
0
0
0
3
3
2
2
0
0
0
0
0
0
0
0
0
0
0
0
0
0
0
0
0
0
0
0
3
3
2
2
0
0
0
0
0
0
0
0
0
0
0
0
0
0
0
0
0
0
0
0
3
3
2
2
0
0
0
0
0
0
0
0
0
0
0
0
0
0
0
0
0
0
0
0
3
3
2
2
3
3
2
2
3
3
2
2
3
3
2
2
3
3
2
2
3
3
2
2
3
3
2
2
3
3
2
2
3
3
2
2
3
3
2
2
3
3
2
2
3
3
2
2
3
3
2
2
3
3
2
2
3
3
2
2
3
3
2
2
3
3
2
2
3
3
2
2
3
3
2
2
3
3
2
2
3
3
2
2
3
3
2
2
3
3
2
2
3
3
2
2
3
3
2
2
3
3
2
2
3
3
2
2
3
3
2
2
3
3
2
2
3
3
2
2
3
3
2
2
2
2
2
2
2
2
2
2
2
2
2
2
2
2
2
2
2
2
2
2
2
2
2
2
3
3
2
2
2
2
2
2
2
2
2
2
2
2
2
2
2
2
2
2
2
2
2
2
2
2
2
2
3
3
3
3
3
3
3
3
3
3
3
3
3
3
3
3
3
3
3
3
3
3
3
3
3
3
2
2
3
3
3
3
3
3
3
3
3
3
3
3
3
3
3
3
3
3
3
3
3
3
3
3
3
3
2
2
</DataArray>
<DataArray NumberOfComponents='1' type='Float32' Name='Velocity' format='ascii'>
0.000000
0.000000
0.000000
0.000000
0.000000
0.000000
0.000000
0.000000
0.000000
0.000000
0.000000
0.000000
0.000000
0.000000
0.000000
0.000000
0.000000
0.000000
0.000000
0.000000
0.000000
0.000000
0.000000
0.000000
0.000000
0.000000
0.000000
0.000000
0.000000
0.000000
0.000000
0.000000
0.000000
0.000000
0.000000
0.000000
0.000000
0.000000
0.000000
0.000000
0.000000
0.000000
0.000000
0.000000
0.000000
0.000000
0.000000
0.000000
0.000000
0.000000
0.000000
0.000000
0.000000
0.000000
0.000000
0.000000
0.000000
0.000000
0.000000
0.000000
0.000000
0.000000
0.000000
0.000000
0.000000
0.000000
0.000000
0.000000
0.000000
0.000000
0.000000
0.000000
0.000000
0.000000
0.000000
0.000000
0.000000
0.000000
0.000000
0.000000
0.000000
0.000000
0.000000
0.000000
0.000000
0.000000
0.000000
0.000000
0.000000
0.000000
0.000000
0.000000
0.000000
0.000000
0.000000
0.000000
0.000000
0.000000
0.000000
0.000000
0.000000
0.000000
0.000000
0.000000
0.000000
0.000000
0.000000
0.000000
0.000000
0.000000
0.000000
0.000000
0.000000
0.000000
0.000000
0.000000
1.159541
0.315985
0.158100
0.252151
0.548538
0.434246
0.453066
0.538956
0.469309
1.823952
0.313406
1.174798
0.441032
0.249618
0.642288
0.697062
1.452664
0.284403
0.677835
0.251356
0.000000
0.000000
0.000000
0.000000
0.500072
1.310281
1.111310
0.544281
0.670234
0.773888
0.954301
0.801176
0.778054
0.654355
1.151466
0.525174
1.005631
0.809128
0.404098
0.378052
0.236203
0.525221
1.807076
0.359020
0.000000
0.000000
0.000000
0.000000
1.137533
0.852728
0.531941
0.557041
0.761426
0.474544
0.482020
0.549934
0.937812
0.378974
0.256584
1.289060
0.590553
0.849692
0.480873
0.571032
0.495294
0.829039
0.635485
0.940787
0.000000
0.000000
0.000000
0.000000
0.519227
0.700978
0.689355
0.454379
0.441859
0.435755
0.481502
1.105534
0.222325
0.589893
0.417714
0.640791
0.683330
0.519067
0.992714
0.159901
0.462197
1.937123
0.646527
0.922175
0.000000
0.000000
0.000000
0.000000
0.313083
0.688239
0.156773
0.185728
1.077927
0.479014
1.351390
0.858676
0.499243
0.324273
0.405325
0.847046
0.466258
0.726635
0.303424
0.696031
1.158825
1.224973
0.738595
0.782329
0.000000
0.000000
0.000000
0.000000
1.320325
0.251926
0.499168
1.036001
0.468044
0.116718
0.314631
0.378559
0.214630
0.454492
0.162772
0.342192
0.136582
0.717980
0.342972
0.399743
0.480128
0.594052
0.215688
0.978721
0.000000
0.000000
0.000000
0.000000
0.740964
0.845020
0.282779
0.428613
0.341227
1.444519
0.273152
0.720027
0.189814
0.235946
0.711343
0.403272
0.884546
0.306517
0.176318
0.835931
0.180236
0.872721
1.772492
1.073978
0.000000
0.000000
0.000000
0.000000
0.412501
0.379145
0.723268
0.529315
0.407876
1.226429
0.752415
0.296219
1.176618
1.593517
1.005642
0.469127
0.263706
0.636001
0.915435
1.518985
0.568447
0.578686
0.049317
0.195528
0.000000
0.000000
0.000000
0.000000
1.129591
4.669239
0.975584
0.164566
0.898390
1.364708
0.745349
0.268640
0.802920
0.939109
0.869555
1.356646
0.376461
1.189176
0.945044
1.005640
0.624425
0.526931
0.807018
0.280459
0.000000
0.000000
0.000000
0.000000
0.332976
0.979109
0.977355
0.892667
0.592513
0.953922
1.599780
0.695087
0.778732
0.809330
0.353926
0.758932
1.701017
0.705698
0.723020
0.435285
0.564198
0.339731
0.430633
0.858363
0.000000
0.000000
0.000000
0.000000
0.000000
0.000000
0.000000
0.000000
0.000000
0.000000
0.000000
0.000000
0.000000
0.000000
0.000000
0.000000
0.000000
0.000000
0.000000
0.000000
0.000000
0.000000
0.000000
0.000000
0.000000
0.000000
0.000000
0.000000
0.000000
0.000000
0.000000
0.000000
0.000000
0.000000
0.000000
0.000000
0.000000
0.000000
0.000000
0.000000
0.000000
0.000000
0.000000
0.000000
0.000000
0.000000
0.000000
0.000000
0.000000
0.000000
0.000000
0.000000
0.000000
0.000000
0.000000
0.000000
0.000000
0.000000
0.000000
0.000000
0.000000
0.000000
0.000000
0.000000
0.000000
0.000000
0.000000
0.000000
0.000000
0.000000
0.000000
0.000000
0.000000
0.000000
0.000000
0.000000
0.000000
0.000000
0.000000
0.000000
0.000000
0.000000
0.000000
0.000000
0.000000
0.000000
0.000000
0.000000
0.000000
0.000000
0.000000
0.000000
0.000000
0.000000
0.000000
0.000000
0.000000
0.000000
0.000000
0.000000
0.000000
0.000000
0.000000
0.000000
0.000000
0.000000
0.000000
0.000000
0.000000
0.000000
0.000000
0.000000
0.000000
0.000000
0.000000
0.000000
0.000000
0.000000
0.000000
0.000000
0.000000
0.000000
0.000000
0.000000
0.000000
0.000000
0.000000
0.000000
0.000000
0.000000
0.000000
0.000000
0.000000
0.000000
0.000000
0.000000
0.000000
0.000000
0.000000
0.000000
0.000000
0.000000
0.000000
0.000000
0.000000
0.000000
0.000000
0.000000
0.000000
0.000000
0.000000
0.000000
0.000000
0.000000
0.000000
0.000000
0.000000
0.000000
0.000000
0.000000
0.000000
0.000000
0.000000
0.000000
0.000000
0.000000
0.000000
0.000000
0.000000
0.000000
0.000000
0.000000
0.000000
0.000000
0.000000
0.000000
0.000000
0.000000
0.000000
0.000000
0.000000
0.000000
0.000000
0.000000
0.000000
0.000000
0.000000
0.000000
0.000000
0.000000
0.000000
0.000000
0.000000
0.000000
0.000000
0.000000
0.000000
0.000000
0.000000
0.000000
0.000000
0.000000
0.000000
0.000000
0.000000
0.000000
0.000000
0.000000
0.000000
0.000000
0.000000
0.000000
0.000000
0.000000
0.000000
0.000000
0.000000
0.000000
0.000000
0.000000
0.000000
0.000000
0.000000
0.000000
0.000000
0.000000
0.000000
0.000000
0.000000
0.000000
0.000000
0.000000
</DataArray>
<DataArray NumberOfComponents='1' type='Float32' Name='pressure' format='ascii'>
0.000000
0.000000
0.000000
0.000000
0.000000
0.000000
0.000000
0.000000
0.000000
0.000000
0.000000
0.000000
0.000000
0.000000
0.000000
0.000000
0.000000
0.000000
0.000000
0.000000
0.000000
0.000000
0.000000
0.000000
0.000000
0.000000
0.000000
0.000000
0.000000
0.000000
0.000000
0.000000
0.000000
0.000000
0.000000
0.000000
0.000000
0.000000
0.000000
0.000000
0.000000
0.000000
0.000000
0.000000
0.000000
0.000000
0.000000
0.000000
0.000000
0.000000
0.000000
0.000000
0.000000
0.000000
0.000000
0.000000
0.000000
0.000000
0.000000
0.000000
0.000000
671.280273
0.000000
0.000000
0.000000
0.000000
0.000000
0.000000
0.000000
0.000000
0.000000
0.000000
0.000000
0.000000
0.000000
0.000000
0.000000
0.000000
0.000000
0.000000
0.000000
0.000000
0.000000
0.000000
0.000000
0.000000
0.000000
0.000000
0.000000
0.000000
0.000000
0.000000
0.000000
0.000000
0.000000
0.000000
0.000000
0.000000
0.000000
0.000000
0.000000
0.000000
0.000000
0.000000
0.000000
0.000000
0.000000
0.000000
0.000000
0.000000
0.000000
0.000000
0.000000
0.000000
0.000000
0.000000
3113.602783
0.000000
2078.570312
90.173645
2301.245605
1410.358521
2311.175049
910.702637
2838.062988
5699.632812
2415.378174
4543.009766
2151.127441
0.000000
1918.922974
0.000000
0.000000
1364.512207
0.000000
0.000000
0.000000
0.000000
1764.662231
669.800720
0.000000
0.000000
0.000000
1229.546875
0.000000
415.812805
408.637817
1334.506592
0.000000
0.000000
0.000000
469.746826
1531.620117
0.000000
0.000000
0.000000
2443.770996
97.515129
0.000000
1279.006226
0.000000
0.000000
1733.965088
534.199829
844.518494
0.000000
277.141418
0.000000
545.289734
1058.347168
1085.037354
0.000000
246.123398
0.000000
1026.650513
0.000000
1125.505737
1515.689087
2555.999512
0.000000
0.000000
372.956085
801.840881
0.000000
0.000000
0.000000
0.000000
0.000000
3112.211914
0.000000
1014.335754
2354.695557
0.000000
220.898376
346.970703
1862.037109
756.570618
1228.924072
1182.622803
0.000000
277.556122
1200.818481
0.000000
1496.762451
1105.194702
0.000000
202.656296
1747.022827
0.000000
0.000000
693.555298
0.000000
4.791816
0.000000
0.000000
2345.849365
0.000000
968.924683
0.000000
0.000000
0.000000
0.000000
1286.295654
0.000000
326.925476
492.849945
954.158142
0.000000
0.000000
0.000000
1291.461304
15584.953125
0.000000
0.000000
1403.717407
2112.881836
0.000000
138.030258
0.000000
0.000000
1444.403320
0.000000
0.000000
0.000000
0.000000
0.000000
524.347778
431.264801
605.222961
317.328186
0.000000
906.984070
721.728516
0.000000
818.228516
0.000000
0.000000
0.000000
749.571167
0.000000
0.000000
0.000000
0.000000
0.000000
1092.504639
0.000000
550.590454
0.000000
0.000000
1848.350586
0.000000
618.311890
0.000000
1158.724609
2708.618408
585.938538
1695.241211
0.000000
0.000000
0.000000
0.000000
0.000000
3076.115234
2108.547607
1761.741333
2617.533447
0.000000
957.038330
0.000000
0.000000
0.000000
1287.937744
0.000000
0.000000
0.000000
902.239319
0.000000
527.002441
0.000000
0.000000
892.024902
0.000000
0.000000
300.672119
0.000000
0.000000
3814.558105
4167.711914
0.000000
0.000000
0.670012
1246.852295
0.000000
0.000000
0.000000
0.000000
0.000000
0.000000
0.000000
0.000000
313.852478
0.000000
0.000000
0.000000
16.121809
0.000000
0.000000
0.000000
0.000000
0.000000
3011.415039
3559.909180
0.000000
1073.708618
0.000000
0.000000
0.000000
0.000000
0.000000
0.000000
182.161316
0.000000
0.000000
7706.266602
0.000000
1262.030029
1326.525513
0.000000
756.990417
0.000000
0.000000
459.381622
0.000000
0.000000
1622.081665
1998.779297
0.000000
0.000000
0.000000
0.000000
0.000000
0.000000
0.000000
0.000000
0.000000
0.000000
0.000000
0.000000
0.000000
0.000000
0.000000
0.000000
0.000000
0.000000
0.000000
0.000000
0.000000
0.000000
953.338074
25.396582
0.000000
0.000000
891.873962
0.000000
0.000000
0.000000
797.872375
234.580368
0.000000
0.000000
622.477905
475.930450
0.000000
0.000000
802.450623
0.000000
0.000000
0.000000
2636.361816
2236.364014
0.000000
0.000000
976.085083
0.000000
0.000000
0.000000
1218.816772
152.554062
0.000000
0.000000
364.820679
1009.090698
0.000000
0.000000
1031.820679
701.790283
0.000000
0.000000
1993.934204
1993.729492
0.000000
0.000000
1922.065308
2130.223877
0.000000
0.000000
2060.463867
2370.695068
0.000000
0.000000
1848.613647
2560.300293
0.000000
0.000000
1392.087280
312.286041
0.000000
0.000000
0.000000
0.000000
0.000000
0.000000
0.000000
0.000000
0.000000
0.000000
996.346191
964.609741
0.000000
0.000000
317.221161
0.000000
0.000000
0.000000
979.150452
1503.587891
0.000000
0.000000
1899.970703
1680.061646
0.000000
0.000000
2701.907227
3118.578857
0.000000
0.000000
1340.188232
1084.742554
0.000000
0.000000
2302.657715
2725.025391
0.000000
0.000000
1537.736328
1213.148804
82.463928
770.069031
0.000000
1376.657471
0.000000
0.000000
0.000000
0.000000
0.000000
0.000000
0.000000
0.000000
0.000000
0.000000
0.000000
0.000000
0.000000
0.000000
0.000000
0.000000
0.000000
0.000000
0.000000
0.000000
0.000000
0.000000
1340.199585
1156.173706
425.424713
1916.488281
1783.500366
2209.375488
131.589050
0.000000
0.000000
0.000000
0.000000
0.000000
0.000000
0.000000
0.000000
0.000000
0.000000
0.000000
0.000000
0.000000
0.000000
0.000000
0.000000
0.000000
0.000000
0.000000
0.000000
0.000000
0.000000
0.000000
0.000000
0.000000
0.000000
0.000000
0.000000
0.000000
0.000000
0.000000
0.000000
0.000000
0.000000
0.000000
0.000000
0.000000
0.000000
0.000000
0.000000
0.000000
0.000000
0.000000
0.000000
0.000000
0.000000
0.000000
0.000000
0.000000
0.000000
0.000000
0.000000
0.000000
0.000000
0.000000
0.000000
0.000000
0.000000
0.000000
0.000000
0.000000
0.000000
0.000000
0.000000
0.000000
0.000000
0.000000
0.000000
0.000000
0.000000
0.000000
0.000000
0.000000
0.000000
0.000000
</DataArray>
</PointData>
<Cells>
<DataArray type='Int32' Name='connectivity' format='ascii'>
0
1
2
3
4
5
6
7
8
9
10
11
12
13
14
15
16
17
18
19
20
21
22
23
24
25
26
27
28
29
30
31
32
33
34
35
36
37
38
39
40
41
42
43
44
45
46
47
48
49
50
51
52
53
54
55
56
57
58
59
60
61
62
63
64
65
66
67
68
69
70
71
72
73
74
75
76
77
78
79
80
81
82
83
84
85
86
87
88
89
90
91
92
93
94
95
96
97
98
99
100
101
102
103
104
105
106
107
108
109
110
111
112
113
114
115
116
117
118
119
120
121
122
123
124
125
126
127
128
129
130
131
132
133
134
135
136
137
138
139
140
141
142
143
144
145
146
147
148
149
150
151
152
153
154
155
156
157
158
159
160
161
162
163
164
165
166
167
168
169
170
171
172
173
174
175
176
177
178
179
180
181
182
183
184
185
186
187
188
189
190
191
192
193
194
195
196
197
198
199
200
201
202
203
204
205
206
207
208
209
210
211
212
213
214
215
216
217
218
219
220
221
222
223
224
225
226
227
228
229
230
231
232
233
234
235
236
237
238
239
240
241
242
243
244
245
246
247
248
249
250
251
252
253
254
255
256
257
258
259
260
261
262
263
264
265
266
267
268
269
270
271
272
273
274
275
276
277
278
279
280
281
282
283
284
285
286
287
288
289
290
291
292
293
294
295
296
297
298
299
300
301
302
303
304
305
306
307
308
309
310
311
312
313
314
315
316
317
318
319
320
321
322
323
324
325
326
327
328
329
330
331
332
333