<?xml version='1.0' encoding='UTF-8'?>
<VTKFile xmlns='VTK' byte_order='LittleEndian' version='0.1' type='UnstructuredGrid'>
<UnstructuredGrid>
<Piece NumberOfCells='584' NumberOfPoints='584'>
<Points>
<DataArray NumberOfComponents='3' type='Float32' Name='Position' format='ascii'>
-0.075000 -0.075000 0.000000
-0.075000 -0.050000 0.000000
-0.075000 -0.025000 0.000000
-0.075000 0.000000 0.000000
-0.075000 0.025000 0.000000
-0.075000 0.050000 0.000000
-0.075000 0.075000 0.000000
-0.075000 0.100000 0.000000
-0.075000 0.125000 0.000000
-0.075000 0.150000 0.000000
-0.075000 0.175000 0.000000
-0.075000 0.200000 0.000000
-0.075000 0.225000 0.000000
-0.075000 0.250000 0.000000
-0.075000 0.275000 0.000000
-0.075000 0.300000 0.000000
-0.075000 0.325000 0.000000
-0.075000 0.350000 0.000000
-0.075000 0.375000 0.000000
-0.075000 0.400000 0.000000
-0.075000 0.425000 0.000000
-0.075000 0.450000 0.000000
-0.075000 0.475000 0.000000
-0.075000 0.500000 0.000000
-0.075000 0.525000 0.000000
-0.075000 0.550000 0.000000
-0.075000 0.575000 0.000000
-0.075000 0.600000 0.000000
-0.050000 -0.075000 0.000000
-0.050000 -0.050000 0.000000
-0.050000 -0.025000 0.000000
-0.050000 0.000000 0.000000
-0.050000 0.025000 0.000000
-0.050000 0.050000 0.000000
-0.050000 0.075000 0.000000
-0.050000 0.100000 0.000000
-0.050000 0.125000 0.000000
-0.050000 0.150000 0.000000
-0.050000 0.175000 0.000000
-0.050000 0.200000 0.000000
-0.050000 0.225000 0.000000
-0.050000 0.250000 0.000000
-0.050000 0.275000 0.000000
-0.050000 0.300000 0.000000
-0.050000 0.325000 0.000000
-0.050000 0.350000 0.000000
-0.050000 0.375000 0.000000
-0.050000 0.400000 0.000000
-0.050000 0.425000 0.000000
-0.050000 0.450000 0.000000
-0.050000 0.475000 0.000000
-0.050000 0.500000 0.000000
-0.050000 0.525000 0.000000
-0.050000 0.550000 0.000000
-0.050000 0.575000 0.000000
-0.050000 0.600000 0.000000
-0.025000 -0.075000 0.000000
-0.025000 -0.050000 0.000000
-0.025000 -0.025000 0.000000
-0.025000 0.000000 0.000000
-0.025000 0.025000 0.000000
-0.025000 0.050000 0.000000
-0.025000 0.075000 0.000000
-0.025000 0.100000 0.000000
-0.025000 0.125000 0.000000
-0.025000 0.150000 0.000000
-0.025000 0.175000 0.000000
-0.025000 0.200000 0.000000
-0.025000 0.225000 0.000000
-0.025000 0.250000 0.000000
-0.025000 0.275000 0.000000
-0.025000 0.300000 0.000000
-0.025000 0.325000 0.000000
-0.025000 0.350000 0.000000
-0.025000 0.375000 0.000000
-0.025000 0.400000 0.000000
-0.025000 0.425000 0.000000
-0.025000 0.450000 0.000000
-0.025000 0.475000 0.000000
-0.025000 0.500000 0.000000
-0.025000 0.525000 0.000000
-0.025000 0.550000 0.000000
-0.025000 0.575000 0.000000
-0.025000 0.600000 0.000000
0.000000 -0.075000 0.000000
0.000000 -0.050000 0.000000
0.000000 -0.025000 0.000000
0.000000 0.000000 0.000000
0.000000 0.025000 0.000000
0.000000 0.050000 0.000000
0.000000 0.075000 0.000000
0.000000 0.100000 0.000000
0.000000 0.125000 0.000000
0.000000 0.150000 0.000000
0.000000 0.175000 0.000000
0.000000 0.200000 0.000000
0.000000 0.225000 0.000000
0.000000 0.250000 0.000000
0.000000 0.275000 0.000000
0.000000 0.300000 0.000000
0.000000 0.325000 0.000000
0.000000 0.350000 0.000000
0.000000 0.375000 0.000000
0.000000 0.400000 0.000000
0.000000 0.425000 0.000000
0.000000 0.450000 0.000000
0.000000 0.475000 0.000000
0.000000 0.500000 0.000000
0.000000 0.525000 0.000000
0.000000 0.550000 0.000000
0.000000 0.575000 0.000000
0.000000 0.600000 0.000000
0.025000 -0.075000 0.000000
0.025000 -0.050000 0.000000
0.025000 -0.025000 0.000000
0.025000 0.000000 0.000000
0.181512 0.022792 0.000000
0.157342 0.027386 0.000000
0.137118 0.024844 0.000000
0.094976 0.020533 0.000000
0.207806 0.046149 0.000000
0.043644 0.022488 0.000000
0.278520 0.060908 0.000000
0.188080 0.043872 0.000000
0.115484 0.036312 0.000000
0.086318 0.043466 0.000000
0.149837 0.056245 0.000000
0.131064 0.056812 0.000000
0.062748 0.030917 0.000000
0.021907 0.031997 0.000000
0.028627 0.056513 0.000000
0.026685 0.074372 0.000000
0.069577 0.070263 0.000000
0.029106 0.097473 0.000000
0.025420 0.112566 0.000000
0.057646 0.098817 0.000000
0.050000 -0.075000 0.000000
0.050000 -0.050000 0.000000
0.050000 -0.025000 0.000000
0.050000 0.000000 0.000000
0.216104 0.021258 0.000000
0.250285 0.058874 0.000000
0.349525 0.075590 0.000000
0.365944 0.042896 0.000000
0.327001 0.085148 0.000000
0.345510 0.105138 0.000000
0.321337 0.058475 0.000000
0.446961 0.056669 0.000000
0.232968 0.050913 0.000000
0.262708 0.025945 0.000000
0.305826 0.075554 0.000000
0.279993 0.041541 0.000000
0.057748 0.053010 0.000000
0.282101 0.079518 0.000000
0.124161 0.086061 0.000000
0.181556 0.065978 0.000000
0.104129 0.057311 0.000000
0.156633 0.078469 0.000000
0.075283 0.093842 0.000000
0.090415 0.079611 0.000000
0.075000 -0.075000 0.000000
0.075000 -0.050000 0.000000
0.075000 -0.025000 0.000000
0.075000 0.000000 0.000000
0.242333 0.029200 0.000000
0.334882 0.047165 0.000000
0.342251 0.021189 0.000000
0.316676 0.028760 0.000000
0.459582 0.039055 0.000000
0.554830 0.032846 0.000000
0.579151 0.021015 0.000000
0.374259 0.065732 0.000000
0.481115 0.088122 0.000000
0.507340 0.072168 0.000000
0.395117 0.046970 0.000000
0.279954 0.102369 0.000000
0.249770 0.097945 0.000000
0.238281 0.092621 0.000000
0.220127 0.076562 0.000000
0.170792 0.092915 0.000000
0.188993 0.087499 0.000000
0.296333 0.109743 0.000000
0.262351 0.128352 0.000000
0.122432 0.099406 0.000000
0.100000 -0.075000 0.000000
0.100000 -0.050000 0.000000
0.100000 -0.025000 0.000000
0.100000 0.000000 0.000000
0.403345 0.027126 0.000000
0.374546 0.023493 0.000000
0.526111 0.019993 0.000000
0.745112 0.033385 0.000000
0.297365 0.023115 0.000000
0.635526 0.021170 0.000000
0.644463 0.044061 0.000000
0.616882 0.064752 0.000000
0.566020 0.051849 0.000000
0.595407 0.032811 0.000000
0.414763 0.052403 0.000000
0.425664 0.023387 0.000000
0.480449 0.067557 0.000000
0.499139 0.094255 0.000000
0.404255 0.087897 0.000000
0.207893 0.089438 0.000000
0.432878 0.070053 0.000000
0.423719 0.088689 0.000000
0.334079 0.122600 0.000000
0.317586 0.114316 0.000000
0.125000 -0.075000 0.000000
0.125000 -0.050000 0.000000
0.125000 -0.025000 0.000000
0.125000 0.000000 0.000000
0.769530 0.023193 0.000000
0.622302 0.036228 0.000000
0.943199 0.060711 0.000000
0.914705 0.025325 0.000000
0.918671 0.066706 0.000000
0.461413 0.021035 0.000000
0.716156 0.044944 0.000000
0.778281 0.041863 0.000000
0.728008 0.021411 0.000000
0.624716 0.077989 0.000000
0.756345 0.077059 0.000000
0.693179 0.038300 0.000000
0.571525 0.083927 0.000000
0.458890 0.078043 0.000000
0.387548 0.093804 0.000000
0.501936 0.042499 0.000000
0.660057 0.059292 0.000000
0.370416 0.085413 0.000000
0.524483 0.069200 0.000000
0.347554 0.131752 0.000000
0.150000 -0.075000 0.000000
0.150000 -0.050000 0.000000
0.150000 -0.025000 0.000000
0.150000 0.000000 0.000000
0.976073 0.090041 0.000000
0.931257 0.038600 0.000000
0.980599 0.160797 0.000000
0.955565 0.214590 0.000000
0.963606 0.038004 0.000000
0.953604 0.262809 0.000000
0.896476 0.056115 0.000000
0.936731 0.082680 0.000000
0.892254 0.024875 0.000000
0.857007 0.068495 0.000000
0.867618 0.022774 0.000000
0.683688 0.020501 0.000000
0.800260 0.026674 0.000000
0.821218 0.022544 0.000000
0.670389 0.041873 0.000000
0.584120 0.076823 0.000000
0.528800 0.041615 0.000000
0.594305 0.058524 0.000000
0.546778 0.060472 0.000000
0.490024 0.030527 0.000000
0.175000 -0.075000 0.000000
0.175000 -0.050000 0.000000
0.175000 -0.025000 0.000000
0.175000 0.000000 0.000000
0.835578 0.327665 0.000000
0.980809 0.065854 0.000000
1.002180 0.156870 0.000000
1.005719 0.092114 0.000000
0.998625 0.056507 0.000000
0.983468 0.213048 0.000000
1.003214 0.023993 0.000000
0.983368 0.111735 0.000000
0.964249 0.182171 0.000000
0.982818 0.036996 0.000000
0.926868 0.114031 0.000000
0.976556 0.134670 0.000000
0.892236 0.082462 0.000000
0.836794 0.058300 0.000000
0.765738 0.066779 0.000000
0.911303 0.101961 0.000000
0.855195 0.038091 0.000000
0.717831 0.060152 0.000000
0.658135 0.087164 0.000000
0.679421 0.076334 0.000000
0.200000 -0.075000 0.000000
0.200000 -0.050000 0.000000
0.200000 -0.025000 0.000000
0.200000 0.000000 0.000000
0.910326 0.679073 0.000000
0.996109 0.203486 0.000000
0.943800 0.465007 0.000000
0.999953 0.235598 0.000000
0.952054 0.312621 0.000000
0.942649 0.343749 0.000000
0.961580 0.361260 0.000000
1.002516 0.294657 0.000000
0.984689 0.181843 0.000000
0.924698 0.320270 0.000000
0.995272 0.258981 0.000000
0.948787 0.021863 0.000000
0.941013 0.289009 0.000000
0.958368 0.079504 0.000000
0.842835 0.079237 0.000000
0.917242 0.132096 0.000000
0.953945 0.147942 0.000000
0.879480 0.061532 0.000000
0.824314 0.045119 0.000000
0.746677 0.060070 0.000000
0.225000 -0.075000 0.000000
0.225000 -0.050000 0.000000
0.225000 -0.025000 0.000000
0.225000 0.000000 0.000000
0.976082 0.320005 0.000000
0.971787 1.013072 0.000000
0.970892 0.298356 0.000000
0.892501 0.408924 0.000000
0.857020 0.286597 0.000000
0.900881 0.450991 0.000000
0.959159 0.466212 0.000000
0.992092 0.374337 0.000000
0.996859 0.312022 0.000000
0.951967 0.386994 0.000000
0.989013 0.358314 0.000000
0.935081 0.390394 0.000000
0.826552 0.309596 0.000000
0.893948 0.307615 0.000000
0.967379 0.252646 0.000000
0.977576 0.273875 0.000000
0.945731 0.240711 0.000000
0.955939 0.120598 0.000000
0.892931 0.100035 0.000000
0.797149 0.056193 0.000000
0.250000 -0.075000 0.000000
0.250000 -0.050000 0.000000
0.250000 -0.025000 0.000000
0.250000 0.000000 0.000000
0.985316 0.908844 0.000000
0.895449 0.825053 0.000000
0.909596 0.500633 0.000000
0.943434 0.510193 0.000000
0.834970 0.916594 0.000000
0.976261 0.575548 0.000000
0.835362 0.803736 0.000000
0.896449 0.710105 0.000000
0.804927 0.474236 0.000000
0.968801 0.447238 0.000000
0.882856 0.322048 0.000000
0.921233 0.358148 0.000000
0.941943 0.418666 0.000000
0.758828 0.249023 0.000000
0.921271 0.340189 0.000000
0.884510 0.171497 0.000000
0.917472 0.298489 0.000000
1.002196 0.125123 0.000000
0.934576 0.183093 0.000000
0.940284 0.136005 0.000000
0.275000 -0.075000 0.000000
0.275000 -0.050000 0.000000
0.275000 -0.025000 0.000000
0.275000 0.000000 0.000000
0.300000 -0.075000 0.000000
0.300000 -0.050000 0.000000
0.300000 -0.025000 0.000000
0.300000 0.000000 0.000000
0.325000 -0.075000 0.000000
0.325000 -0.050000 0.000000
0.325000 -0.025000 0.000000
0.325000 0.000000 0.000000
0.350000 -0.075000 0.000000
0.350000 -0.050000 0.000000
0.350000 -0.025000 0.000000
0.350000 0.000000 0.000000
0.375000 -0.075000 0.000000
0.375000 -0.050000 0.000000
0.375000 -0.025000 0.000000
0.375000 0.000000 0.000000
0.400000 -0.075000 0.000000
0.400000 -0.050000 0.000000
0.400000 -0.025000 0.000000
0.400000 0.000000 0.000000
0.425000 -0.075000 0.000000
0.425000 -0.050000 0.000000
0.425000 -0.025000 0.000000
0.425000 0.000000 0.000000
0.450000 -0.075000 0.000000
0.450000 -0.050000 0.000000
0.450000 -0.025000 0.000000
0.450000 0.000000 0.000000
0.475000 -0.075000 0.000000
0.475000 -0.050000 0.000000
0.475000 -0.025000 0.000000
0.475000 0.000000 0.000000
0.500000 -0.075000 0.000000
0.500000 -0.050000 0.000000
0.500000 -0.025000 0.000000
0.500000 0.000000 0.000000
0.525000 -0.075000 0.000000
0.525000 -0.050000 0.000000
0.525000 -0.025000 0.000000
0.525000 0.000000 0.000000
0.550000 -0.075000 0.000000
0.550000 -0.050000 0.000000
0.550000 -0.025000 0.000000
0.550000 0.000000 0.000000
0.575000 -0.075000 0.000000
0.575000 -0.050000 0.000000
0.575000 -0.025000 0.000000
0.575000 0.000000 0.000000
0.600000 -0.075000 0.000000
0.600000 -0.050000 0.000000
0.600000 -0.025000 0.000000
0.600000 0.000000 0.000000
0.625000 -0.075000 0.000000
0.625000 -0.050000 0.000000
0.625000 -0.025000 0.000000
0.625000 0.000000 0.000000
0.650000 -0.075000 0.000000
0.650000 -0.050000 0.000000
0.650000 -0.025000 0.000000
0.650000 0.000000 0.000000
0.675000 -0.075000 0.000000
0.675000 -0.050000 0.000000
0.675000 -0.025000 0.000000
0.675000 0.000000 0.000000
0.700000 -0.075000 0.000000
0.700000 -0.050000 0.000000
0.700000 -0.025000 0.000000
0.700000 0.000000 0.000000
0.725000 -0.075000 0.000000
0.725000 -0.050000 0.000000
0.725000 -0.025000 0.000000
0.725000 0.000000 0.000000
0.750000 -0.075000 0.000000
0.750000 -0.050000 0.000000
0.750000 -0.025000 0.000000
0.750000 0.000000 0.000000
0.775000 -0.075000 0.000000
0.775000 -0.050000 0.000000
0.775000 -0.025000 0.000000
0.775000 0.000000 0.000000
0.800000 -0.075000 0.000000
0.800000 -0.050000 0.000000
0.800000 -0.025000 0.000000
0.800000 0.000000 0.000000
0.825000 -0.075000 0.000000
0.825000 -0.050000 0.000000
0.825000 -0.025000 0.000000
0.825000 0.000000 0.000000
0.850000 -0.075000 0.000000
0.850000 -0.050000 0.000000
0.850000 -0.025000 0.000000
0.850000 0.000000 0.000000
0.875000 -0.075000 0.000000
0.875000 -0.050000 0.000000
0.875000 -0.025000 0.000000
0.875000 0.000000 0.000000
0.900000 -0.075000 0.000000
0.900000 -0.050000 0.000000
0.900000 -0.025000 0.000000
0.900000 0.000000 0.000000
0.925000 -0.075000 0.000000
0.925000 -0.050000 0.000000
0.925000 -0.025000 0.000000
0.925000 0.000000 0.000000
0.950000 -0.075000 0.000000
0.950000 -0.050000 0.000000
0.950000 -0.025000 0.000000
0.950000 0.000000 0.000000
0.975000 -0.075000 0.000000
0.975000 -0.050000 0.000000
0.975000 -0.025000 0.000000
0.975000 0.000000 0.000000
1.000000 -0.075000 0.000000
1.000000 -0.050000 0.000000
1.000000 -0.025000 0.000000
1.000000 0.000000 0.000000
1.025000 -0.075000 0.000000
1.025000 -0.050000 0.000000
1.025000 -0.025000 0.000000
1.025000 0.000000 0.000000
1.025000 0.025000 0.000000
1.025000 0.050000 0.000000
1.025000 0.075000 0.000000
1.025000 0.100000 0.000000
1.025000 0.125000 0.000000
1.025000 0.150000 0.000000
1.025000 0.175000 0.000000
1.025000 0.200000 0.000000
1.025000 0.225000 0.000000
1.025000 0.250000 0.000000
1.025000 0.275000 0.000000
1.025000 0.300000 0.000000
1.025000 0.325000 0.000000
1.025000 0.350000 0.000000
1.025000 0.375000 0.000000
1.025000 0.400000 0.000000
1.025000 0.425000 0.000000
1.025000 0.450000 0.000000
1.025000 0.475000 0.000000
1.025000 0.500000 0.000000
1.025000 0.525000 0.000000
1.025000 0.550000 0.000000
1.025000 0.575000 0.000000
1.025000 0.600000 0.000000
1.050000 -0.075000 0.000000
1.050000 -0.050000 0.000000
1.050000 -0.025000 0.000000
1.050000 0.000000 0.000000
1.050000 0.025000 0.000000
1.050000 0.050000 0.000000
1.050000 0.075000 0.000000
1.050000 0.100000 0.000000
1.050000 0.125000 0.000000
1.050000 0.150000 0.000000
1.050000 0.175000 0.000000
1.050000 0.200000 0.000000
1.050000 0.225000 0.000000
1.050000 0.250000 0.000000
1.050000 0.275000 0.000000
1.050000 0.300000 0.000000
1.050000 0.325000 0.000000
1.050000 0.350000 0.000000
1.050000 0.375000 0.000000
1.050000 0.400000 0.000000
1.050000 0.425000 0.000000
1.050000 0.450000 0.000000
1.050000 0.475000 0.000000
1.050000 0.500000 0.000000
1.050000 0.525000 0.000000
1.050000 0.550000 0.000000
1.050000 0.575000 0.000000
1.050000 0.600000 0.000000
1.075000 -0.075000 0.000000
1.075000 -0.050000 0.000000
1.075000 -0.025000 0.000000
1.075000 0.000000 0.000000
1.075000 0.025000 0.000000
1.075000 0.050000 0.000000
1.075000 0.075000 0.000000
1.075000 0.100000 0.000000
1.075000 0.125000 0.000000
1.075000 0.150000 0.000000
1.075000 0.175000 0.000000
1.075000 0.200000 0.000000
1.075000 0.225000 0.000000
1.075000 0.250000 0.000000
1.075000 0.275000 0.000000
1.075000 0.300000 0.000000
1.075000 0.325000 0.000000
1.075000 0.350000 0.000000
1.075000 0.375000 0.000000
1.075000 0.400000 0.000000
1.075000 0.425000 0.000000
1.075000 0.450000 0.000000
1.075000 0.475000 0.000000
1.075000 0.500000 0.000000
1.075000 0.525000 0.000000
1.075000 0.550000 0.000000
1.075000 0.575000 0.000000
1.075000 0.600000 0.000000
1.100000 -0.075000 0.000000
1.100000 -0.050000 0.000000
1.100000 -0.025000 0.000000
1.100000 0.000000 0.000000
1.100000 0.025000 0.000000
1.100000 0.050000 0.000000
1.100000 0.075000 0.000000
1.100000 0.100000 0.000000
1.100000 0.125000 0.000000
1.100000 0.150000 0.000000
1.100000 0.175000 0.000000
1.100000 0.200000 0.000000
1.100000 0.225000 0.000000
1.100000 0.250000 0.000000
1.100000 0.275000 0.000000
1.100000 0.300000 0.000000
1.100000 0.325000 0.000000
1.100000 0.350000 0.000000
1.100000 0.375000 0.000000
1.100000 0.400000 0.000000
1.100000 0.425000 0.000000
1.100000 0.450000 0.000000
1.100000 0.475000 0.000000
1.100000 0.500000 0.000000
1.100000 0.525000 0.000000
1.100000 0.550000 0.000000
1.100000 0.575000 0.000000
1.100000 0.600000 0.000000
</DataArray>
</Points>
<PointData>
<DataArray NumberOfComponents='1' type='Int32' Name='ParticleType' format='ascii'>
3
3
3
3
3
3
3
3
3
3
3
3
3
3
3
3
3
3
3
3
3
3
3
3
3
3
2
2
3
3
3
3
3
3
3
3
3
3
3
3
3
3
3
3
3
3
3
3
3
3
3
3
3
3
2
2
3
3
2
2
2
2
2
2
2
2
2
2
2
2
2
2
2
2
2
2
2
2
2
2
2
2
2
2
3
3
2
2
2
2
2
2
2
2
2
2
2
2
2
2
2
2
2
2
2
2
2
2
2
2
2
2
3
3
2
2
0
0
0
0
0
0
0
0
0
0
0
0
0
0
0
0
0
0
0
0
3
3
2
2
0
0
0
0
0
0
0
0
0
0
0
0
0
0
0
0
0
0
0
0
3
3
2
2
0
0
0
0
0
0
0
0
0
0
0
0
0
0
0
0
0
0
0
0
3
3
2
2
0
0
0
0
0
0
0
0
0
0
0
0
0
0
0
0
0
0
0
0
3
3
2
2
0
0
0
0
0
0
0
0
0
0
0
0
0
0
0
0
0
0
0
0
3
3
2
2
0
0
0
0
0
0
0
0
0
0
0
0
0
0
0
0
0
0
0
0
3
3
2
2
0
0
0
0
0
0
0
0
0
0
0
0
0
0
0
0
0
0
0
0
3
3
2
2
0
0
0
0
0
0
0
0
0
0
0
0
0
0
0
0
0
0
0
0
3
3
2
2
0
0
0
0
0
0
0
0
0
0
0
0
0
0
0
0
0
0
0
0
3
3
2
2
0
0
0
0
0
0
0
0
0
0
0
0
0
0
0
0
0
0
0
0
3
3
2
2
3
3
2
2
3
3
2
2
3
3
2
2
3
3
2
2
3
3
2
2
3
3
2
2
3
3
2
2
3
3
2
2
3
3
2
2
3
3
2
2
3
3
2
2
3
3
2
2
3
3
2
2
3
3
2
2
3
3
2
2
3
3
2
2
3
3
2
2
3
3
2
2
3
3
2
2
3
3
2
2
3
3
2
2
3
3
2
2
3
3
2
2
3
3
2
2
3
3
2
2
3
3
2
2
3
3
2
2
3
3
2
2
3
3
2
2
3
3
2
2
2
2
2
2
2
2
2
2
2
2
2
2
2
2
2
2
2
2
2
2
2
2
2
2
3
3
2
2
2
2
2
2
2
2
2
2
2
2
2
2
2
2
2
2
2
2
2
2
2
2
2
2
3
3
3
3
3
3
3
3
3
3
3
3
3
3
3
3
3
3
3
3
3
3
3
3
3
3
2
2
3
3
3
3
3
3
3
3
3
3
3
3
3
3
3
3
3
3
3
3
3
3
3
3
3
3
2
2
</DataArray>
<DataArray NumberOfComponents='1' type='Float32' Name='Velocity' format='ascii'>
0.000000
0.000000
0.000000
0.000000
0.000000
0.000000
0.000000
0.000000
0.000000
0.000000
0.000000
0.000000
0.000000
0.000000
0.000000
0.000000
0.000000
0.000000
0.000000
0.000000
0.000000
0.000000
0.000000
0.000000
0.000000
0.000000
0.000000
0.000000
0.000000
0.000000
0.000000
0.000000
0.000000
0.000000
0.000000
0.000000
0.000000
0.000000
0.000000
0.000000
0.000000
0.000000
0.000000
0.000000
0.000000
0.000000
0.000000
0.000000
0.000000
0.000000
0.000000
0.000000
0.000000
0.000000
0.000000
0.000000
0.000000
0.000000
0.000000
0.000000
0.000000
0.000000
0.000000
0.000000
0.000000
0.000000
0.000000
0.000000
0.000000
0.000000
0.000000
0.000000
0.000000
0.000000
0.000000
0.000000
0.000000
0.000000
0.000000
0.000000
0.000000
0.000000
0.000000
0.000000
0.000000
0.000000
0.000000
0.000000
0.000000
0.000000
0.000000
0.000000
0.000000
0.000000
0.000000
0.000000
0.000000
0.000000
0.000000
0.000000
0.000000
0.000000
0.000000
0.000000
0.000000
0.000000
0.000000
0.000000
0.000000
0.000000
0.000000
0.000000
0.000000
0.000000
0.000000
0.000000
0.241942
0.347704
0.254026
0.306431
0.693382
0.057621
1.143337
0.620718
0.089863
0.146567
0.379203
0.294632
0.396233
0.113996
0.066574
0.141756
0.312244
0.221969
0.321537
0.351322
0.000000
0.000000
0.000000
0.000000
0.173464
0.804888
0.788903
0.549462
0.758027
1.076287
0.819412
0.904477
0.850225
0.438260
0.743973
0.423254
0.219888
0.886091
0.643975
0.330867
0.460461
0.428405
0.351289
0.336110
0.000000
0.000000
0.000000
0.000000
0.499133
0.699532
0.904594
0.657859
0.990013
1.074774
1.004116
0.912109
1.358867
0.953320
0.848607
0.630109
0.811169
0.856177
0.650036
0.251593
0.630856
0.603530
0.733924
0.298271
0.000000
0.000000
0.000000
0.000000
0.551341
0.580763
0.857318
1.786166
0.605397
1.217707
1.516035
1.307328
1.371060
1.593753
0.854075
0.845524
1.330609
1.308118
1.208841
0.647026
0.941196
1.272887
0.763005
0.751343
0.000000
0.000000
0.000000
0.000000
1.377623
1.189708
1.457385
1.057655
1.614360
0.669397
1.642234
1.868979
1.453678
1.396066
1.520022
1.724113
1.402749
1.268174
0.896885
1.142767
1.673059
0.943908
1.330936
1.000033
0.000000
0.000000
0.000000
0.000000
1.001778
0.842432
1.263612
1.814325
0.591827
1.741577
1.045977
0.838723
1.259214
1.201334
1.150379
1.536538
1.383973
1.328830
1.582766
1.472136
1.075976
1.457819
1.417182
1.159415
0.000000
0.000000
0.000000
0.000000
1.235523
0.483322
1.359200
0.513293
0.684513
1.520365
0.221498
0.709004
0.868235
0.492484
1.116965
1.160380
1.488401
1.459347
1.424755
1.219419
1.428294
1.800106
1.656184
1.725445
0.000000
0.000000
0.000000
0.000000
1.395719
1.373042
0.787791
1.264425
0.852857
1.142806
1.109391
1.709245
1.828751
0.726422
1.631451
0.380457
1.433228
0.465647
1.026651
1.865588
1.602854
1.481402
1.452819
1.513015
0.000000
0.000000
0.000000
0.000000
1.322834
2.388197
1.493749
0.459331
1.429843
0.622537
0.868346
0.943704
1.536390
0.909718
0.890678
0.677490
1.010996
0.530088
1.599868
1.220046
1.125189
0.955910
1.142041
1.879385
0.000000
0.000000
0.000000
0.000000
1.657672
1.729607
0.932930
0.996133
1.939479
1.088568
1.680360
1.383973
0.868414
0.840660
0.680628
0.602121
0.887362
1.072393
0.970095
0.549118
1.386523
0.939988
1.076511
1.572342
0.000000
0.000000
0.000000
0.000000
0.000000
0.000000
0.000000
0.000000
0.000000
0.000000
0.000000
0.000000
0.000000
0.000000
0.000000
0.000000
0.000000
0.000000
0.000000
0.000000
0.000000
0.000000
0.000000
0.000000
0.000000
0.000000
0.000000
0.000000
0.000000
0.000000
0.000000
0.000000
0.000000
0.000000
0.000000
0.000000
0.000000
0.000000
0.000000
0.000000
0.000000
0.000000
0.000000
0.000000
0.000000
0.000000
0.000000
0.000000
0.000000
0.000000
0.000000
0.000000
0.000000
0.000000
0.000000
0.000000
0.000000
0.000000
0.000000
0.000000
0.000000
0.000000
0.000000
0.000000
0.000000
0.000000
0.000000
0.000000
0.000000
0.000000
0.000000
0.000000
0.000000
0.000000
0.000000
0.000000
0.000000
0.000000
0.000000
0.000000
0.000000
0.000000
0.000000
0.000000
0.000000
0.000000
0.000000
0.000000
0.000000
0.000000
0.000000
0.000000
0.000000
0.000000
0.000000
0.000000
0.000000
0.000000
0.000000
0.000000
0.000000
0.000000
0.000000
0.000000
0.000000
0.000000
0.000000
0.000000
0.000000
0.000000
0.000000
0.000000
0.000000
0.000000
0.000000
0.000000
0.000000
0.000000
0.000000
0.000000
0.000000
0.000000
0.000000
0.000000
0.000000
0.000000
0.000000
0.000000
0.000000
0.000000
0.000000
0.000000
0.000000
0.000000
0.000000
0.000000
0.000000
0.000000
0.000000
0.000000
0.000000
0.000000
0.000000
0.000000
0.000000
0.000000
0.000000
0.000000
0.000000
0.000000
0.000000
0.000000
0.000000
0.000000
0.000000
0.000000
0.000000
0.000000
0.000000
0.000000
0.000000
0.000000
0.000000
0.000000
0.000000
0.000000
0.000000
0.000000
0.000000
0.000000
0.000000
0.000000
0.000000
0.000000
0.000000
0.000000
0.000000
0.000000
0.000000
0.000000
0.000000
0.000000
0.000000
0.000000
0.000000
0.000000
0.000000
0.000000
0.000000
0.000000
0.000000
0.000000
0.000000
0.000000
0.000000
0.000000
0.000000
0.000000
0.000000
0.000000
0.000000
0.000000
0.000000
0.000000
0.000000
0.000000
0.000000
0.000000
0.000000
0.000000
0.000000
0.000000
0.000000
0.000000
0.000000
0.000000
0.000000
0.000000
0.000000
0.000000
0.000000
0.000000
0.000000
0.000000
0.000000
0.000000
0.000000
0.000000
0.000000
0.000000
0.000000
0.000000
</DataArray>
<DataArray NumberOfComponents='1' type='Float32' Name='pressure' format='ascii'>
0.000000
0.000000
0.000000
0.000000
0.000000
0.000000
0.000000
0.000000
0.000000
0.000000
0.000000
0.000000
0.000000
0.000000
0.000000
0.000000
0.000000
0.000000
0.000000
0.000000
0.000000
0.000000
0.000000
0.000000
0.000000
0.000000
0.000000
0.000000
0.000000
0.000000
0.000000
0.000000
0.000000
0.000000
0.000000
0.000000
0.000000
0.000000
0.000000
0.000000
0.000000
0.000000
0.000000
0.000000
0.000000
0.000000
0.000000
0.000000
0.000000
0.000000
0.000000
0.000000
0.000000
0.000000
0.000000
0.000000
0.000000
0.000000
650.866394
899.748657
1975.035645
793.708496
0.000000
0.000000
0.000000
0.000000
0.000000
0.000000
0.000000
0.000000
0.000000
0.000000
0.000000
0.000000
0.000000
0.000000
0.000000
0.000000
0.000000
0.000000
0.000000
0.000000
0.000000
0.000000
0.000000
0.000000
509.705872
25.918554
2016.779785
889.926270
1133.150024
0.000000
0.000000
0.000000
0.000000
0.000000
0.000000
0.000000
0.000000
0.000000
0.000000
0.000000
0.000000
0.000000
0.000000
0.000000
0.000000
0.000000
0.000000
0.000000
0.000000
0.000000
0.000000
0.000000
136.754059
0.000000
1936.755859
205.820984
1454.379150
120.813194
282.872925
1950.645142
27.066616
1237.566650
1137.850342
1276.790771
376.493225
729.757874
964.941162
2268.447754
606.523376
1072.419922
894.284485
0.000000
0.000000
0.000000
0.000000
0.000000
1261.474243
502.729553
341.113281
0.000000
0.000000
0.000000
0.000000
0.000000
1189.376953
0.000000
1113.152466
1184.711914
0.000000
106.213631
0.000000
0.000000
0.000000
1736.495728
610.431213
0.000000
0.000000
0.000000
0.000000
0.000000
854.706543
0.000000
2339.648438
614.020020
0.000000
0.000000
0.000000
0.000000
0.000000
209.857635
0.000000
0.000000
623.414673
0.000000
0.000000
0.000000
301.412323
0.000000
0.000000
0.000000
0.000000
0.000000
0.000000
0.000000
2419.047363
1903.088867
1066.635498
0.000000
0.000000
2188.119385
0.000000
0.000000
0.000000
0.000000
610.041199
0.000000
0.000000
0.000000
0.000000
0.000000
0.000000
0.000000
0.000000
0.000000
0.000000
0.000000
0.000000
0.000000
636.029968
0.000000
1412.731934
0.000000
3837.252686
1265.312988
1600.566528
0.000000
1736.895386
239.684509
2212.573730
0.000000
0.000000
0.000000
0.000000
0.000000
0.000000
0.000000
0.000000
0.000000
0.000000
0.000000
0.000000
0.000000
951.654663
1352.659180
740.235718
2495.552002
1002.935425
0.000000
2623.533936
0.000000
3090.078125
30.460524
0.000000
0.000000
0.000000
616.424500
1073.249268
1382.896851
0.000000
0.000000
936.984619
8.144893
0.000000
0.000000
0.000000
0.000000
2447.815186
3311.265381
0.000000
2990.614258
0.000000
1288.578979
242.150177
0.000000
1438.037109
1583.223511
0.000000
2229.622803
2185.510742
2660.019043
622.811951
1504.753418
0.000000
2482.957520
0.000000
0.000000
0.000000
0.000000
0.000000
0.000000
2558.744629
1309.564331
0.000000
0.000000
0.000000
0.000000
0.000000
0.000000
0.000000
254.934387
407.462860
0.000000
0.000000
1982.694702
0.000000
3512.612061
0.000000
0.000000
0.000000
3501.771240
0.000000
153.473328
0.000000
0.000000
2257.882812
1219.628296
0.000000
0.000000
0.000000
0.000000
0.000000
0.000000
0.000000
0.000000
0.000000
0.000000
0.000000
0.000000
0.000000
0.000000
0.000000
0.000000
0.000000
1686.458618
0.000000
0.000000
0.000000
0.000000
0.000000
0.000000
0.000000
0.000000
0.000000
0.000000
0.000000
0.000000
0.000000
0.000000
0.000000
0.000000
0.000000
0.000000
0.000000
0.000000
0.000000
0.000000
0.000000
1907.261841
0.000000
227.050522
0.000000
0.000000
0.000000
0.000000
0.000000
0.000000
1749.949097
2221.455811
0.000000
0.000000
2066.945312
2560.448730
0.000000
0.000000
2932.032471
3106.822754
0.000000
0.000000
1644.284424
1121.480591
0.000000
0.000000
0.000000
0.000000
0.000000
0.000000
356.514679
0.000000
0.000000
0.000000
565.497498
0.000000
0.000000
0.000000
402.164368
0.000000
0.000000
0.000000
0.000000
0.000000
0.000000
0.000000
2536.961182
2098.968994
0.000000
0.000000
642.864746
0.000000
0.000000
0.000000
2037.130981
907.556213
0.000000
0.000000
346.453552
0.000000
0.000000
0.000000
1180.272705
0.000000
0.000000
0.000000
951.686523
0.000000
0.000000
0.000000
1819.299927
0.000000
0.000000
0.000000
1419.961304
0.000000
0.000000
0.000000
2357.951904
1463.725098
0.000000
0.000000
981.002075
264.353607
0.000000
0.000000
1661.058228
830.038879
0.000000
0.000000
810.674316
1626.600708
0.000000
0.000000
1865.845947
390.559814
0.000000
0.000000
971.330994
0.000000
0.000000
0.000000
2177.138428
2939.770996
0.000000
0.000000
1845.178711
2603.861328
0.000000
0.000000
1721.034790
2582.510498
0.000000
0.000000
3002.302246
2770.413086
0.000000
0.000000
965.681763
0.000000
0.000000
0.000000
2260.960205
0.000000
0.000000
0.000000
2753.996338
4401.894043
5337.550293
0.000000
0.000000
5605.881348
4454.640137
0.000000
0.000000
0.000000
0.000000
0.000000
0.000000
0.000000
0.000000
0.000000
0.000000
0.000000
0.000000
0.000000
0.000000
0.000000
0.000000
0.000000
0.000000
0.000000
0.000000
0.000000
3204.346680
3346.850098
4183.643066
2062.173340
3719.856934
5260.787598
3808.001465
2209.347168
42.210594
0.000000
0.000000
0.000000
0.000000
39.337734
0.000000
0.000000
0.000000
0.000000
0.000000
0.000000
0.000000
0.000000
0.000000
0.000000
0.000000
0.000000
0.000000
0.000000
0.000000
0.000000
0.000000
0.000000
0.000000
0.000000
0.000000
0.000000
0.000000
0.000000
0.000000
0.000000
0.000000
0.000000
0.000000
0.000000
0.000000
0.000000
0.000000
0.000000
0.000000
0.000000
0.000000
0.000000
0.000000
0.000000
0.000000
0.000000
0.000000
0.000000
0.000000
0.000000
0.000000
0.000000
0.000000
0.000000
0.000000
0.000000
0.000000
0.000000
0.000000
0.000000
0.000000
0.000000
0.000000
0.000000
0.000000
0.000000
0.000000
0.000000
0.000000
0.000000
0.000000
0.000000
</DataArray>
</PointData>
<Cells>
<DataArray type='Int32' Name='connectivity' format='ascii'>
0
1
2
3
4
5
6
7
8
9
10
11
12
13
14
15
16
17
18
19
20
21
22
23
24
25
26
27
28
29
30
31
32
33
34
35
36
37
38
39
40
41
42
43
44
45
46
47
48
49
50
51
52
53
54
55
56
57
58
59
60
61
62
63
64
65
66
67
68
69
70
71
72
73
74
75
76
77
78
79
80
81
82
83
84
85
86
87
88
89
90
91
92
93
94
95
96
97
98
99
100
101
102
103
104
105
106
107
108
109
110
111
112
113
114
115
116
117
118
119
120
121
122
123
124
125
126
127
128
129
130
131
132
133
134
135
136
137
138
139
140
141
142
143
144
145
146
147
148
149
150
151
152
153
154
155
156
157
158
159
160
161
162
163
164
165
166
167
168
169
170
171
172
173
174
175
176
177
178
179
180
181
182
183
184
185
186
187
188
189
190
191
192
193
194
195
196
197
198
199
200
201
202
203
204
205
206
207
208
209
210
211
212
213
214
215
216
217
218
219
220
221
222
223
224
225
226
227
228
229
230
231
232
233
234
235
236
237
238
239
240
241
242
243
244
245
246
247
248
249
250
251
252
253
254
255
256
257
258
259
260
261
262
263
264
265
266
267
268
269
270
271
272
273
274
275
276
277
278
279
280
281
282
283
284
285
286
287
288
289
290
291
292
293
294
295
296
297
298
299
300
301
302
303
304
305
306
307
308
309
310
311
312
313
314
315
316
317
318
319
320
321
322
323
324
325
326
327
328
329
330
331
332
333
334
335
336
337
338
339