<?xml version='1.0' encoding='UTF-8'?>
<VTKFile xmlns='VTK' byte_order='LittleEndian' version='0.1' type='UnstructuredGrid'>
<UnstructuredGrid>
<Piece NumberOfCells='584' NumberOfPoints='584'>
<Points>
<DataArray NumberOfComponents='3' type='Float32' Name='Position' format='ascii'>
-0.075000 -0.075000 0.000000
-0.075000 -0.050000 0.000000
-0.075000 -0.025000 0.000000
-0.075000 0.000000 0.000000
-0.075000 0.025000 0.000000
-0.075000 0.050000 0.000000
-0.075000 0.075000 0.000000
-0.075000 0.100000 0.000000
-0.075000 0.125000 0.000000
-0.075000 0.150000 0.000000
-0.075000 0.175000 0.000000
-0.075000 0.200000 0.000000
-0.075000 0.225000 0.000000
-0.075000 0.250000 0.000000
-0.075000 0.275000 0.000000
-0.075000 0.300000 0.000000
-0.075000 0.325000 0.000000
-0.075000 0.350000 0.000000
-0.075000 0.375000 0.000000
-0.075000 0.400000 0.000000
-0.075000 0.425000 0.000000
-0.075000 0.450000 0.000000
-0.075000 0.475000 0.000000
-0.075000 0.500000 0.000000
-0.075000 0.525000 0.000000
-0.075000 0.550000 0.000000
-0.075000 0.575000 0.000000
-0.075000 0.600000 0.000000
-0.050000 -0.075000 0.000000
-0.050000 -0.050000 0.000000
-0.050000 -0.025000 0.000000
-0.050000 0.000000 0.000000
-0.050000 0.025000 0.000000
-0.050000 0.050000 0.000000
-0.050000 0.075000 0.000000
-0.050000 0.100000 0.000000
-0.050000 0.125000 0.000000
-0.050000 0.150000 0.000000
-0.050000 0.175000 0.000000
-0.050000 0.200000 0.000000
-0.050000 0.225000 0.000000
-0.050000 0.250000 0.000000
-0.050000 0.275000 0.000000
-0.050000 0.300000 0.000000
-0.050000 0.325000 0.000000
-0.050000 0.350000 0.000000
-0.050000 0.375000 0.000000
-0.050000 0.400000 0.000000
-0.050000 0.425000 0.000000
-0.050000 0.450000 0.000000
-0.050000 0.475000 0.000000
-0.050000 0.500000 0.000000
-0.050000 0.525000 0.000000
-0.050000 0.550000 0.000000
-0.050000 0.575000 0.000000
-0.050000 0.600000 0.000000
-0.025000 -0.075000 0.000000
-0.025000 -0.050000 0.000000
-0.025000 -0.025000 0.000000
-0.025000 0.000000 0.000000
-0.025000 0.025000 0.000000
-0.025000 0.050000 0.000000
-0.025000 0.075000 0.000000
-0.025000 0.100000 0.000000
-0.025000 0.125000 0.000000
-0.025000 0.150000 0.000000
-0.025000 0.175000 0.000000
-0.025000 0.200000 0.000000
-0.025000 0.225000 0.000000
-0.025000 0.250000 0.000000
-0.025000 0.275000 0.000000
-0.025000 0.300000 0.000000
-0.025000 0.325000 0.000000
-0.025000 0.350000 0.000000
-0.025000 0.375000 0.000000
-0.025000 0.400000 0.000000
-0.025000 0.425000 0.000000
-0.025000 0.450000 0.000000
-0.025000 0.475000 0.000000
-0.025000 0.500000 0.000000
-0.025000 0.525000 0.000000
-0.025000 0.550000 0.000000
-0.025000 0.575000 0.000000
-0.025000 0.600000 0.000000
0.000000 -0.075000 0.000000
0.000000 -0.050000 0.000000
0.000000 -0.025000 0.000000
0.000000 0.000000 0.000000
0.000000 0.025000 0.000000
0.000000 0.050000 0.000000
0.000000 0.075000 0.000000
0.000000 0.100000 0.000000
0.000000 0.125000 0.000000
0.000000 0.150000 0.000000
0.000000 0.175000 0.000000
0.000000 0.200000 0.000000
0.000000 0.225000 0.000000
0.000000 0.250000 0.000000
0.000000 0.275000 0.000000
0.000000 0.300000 0.000000
0.000000 0.325000 0.000000
0.000000 0.350000 0.000000
0.000000 0.375000 0.000000
0.000000 0.400000 0.000000
0.000000 0.425000 0.000000
0.000000 0.450000 0.000000
0.000000 0.475000 0.000000
0.000000 0.500000 0.000000
0.000000 0.525000 0.000000
0.000000 0.550000 0.000000
0.000000 0.575000 0.000000
0.000000 0.600000 0.000000
0.025000 -0.075000 0.000000
0.025000 -0.050000 0.000000
0.025000 -0.025000 0.000000
0.025000 0.000000 0.000000
0.260319 0.057907 0.000000
0.255771 0.023313 0.000000
0.203362 0.062771 0.000000
0.193772 0.023080 0.000000
0.341186 0.026970 0.000000
0.088867 0.039680 0.000000
0.419273 0.025131 0.000000
0.278274 0.031853 0.000000
0.223289 0.028894 0.000000
0.157265 0.069018 0.000000
0.300263 0.022984 0.000000
0.191223 0.088089 0.000000
0.169924 0.026989 0.000000
0.052505 0.023021 0.000000
0.081848 0.067963 0.000000
0.016308 0.038250 0.000000
0.121758 0.033773 0.000000
0.107979 0.021011 0.000000
0.125137 0.065405 0.000000
0.148612 0.024515 0.000000
0.050000 -0.075000 0.000000
0.050000 -0.050000 0.000000
0.050000 -0.025000 0.000000
0.050000 0.000000 0.000000
0.330573 0.071333 0.000000
0.381609 0.225766 0.000000
0.396675 0.187256 0.000000
0.069671 0.133100 0.000000
0.170541 0.124290 0.000000
0.597951 0.061350 0.000000
0.324228 0.107258 0.000000
0.716173 0.046924 0.000000
0.349091 0.048751 0.000000
0.373096 0.086556 0.000000
0.190348 0.106163 0.000000
0.395228 0.048440 0.000000
0.079424 0.083097 0.000000
0.383518 0.113660 0.000000
0.216522 0.081633 0.000000
0.171222 0.107814 0.000000
0.203712 0.044437 0.000000
0.320606 0.030383 0.000000
0.138514 0.046949 0.000000
0.176275 0.053108 0.000000
0.075000 -0.075000 0.000000
0.075000 -0.050000 0.000000
0.075000 -0.025000 0.000000
0.075000 0.000000 0.000000
0.350073 0.095655 0.000000
0.298214 0.146079 0.000000
0.529301 0.028825 0.000000
0.448704 0.022584 0.000000
0.726707 0.092211 0.000000
0.785366 0.023977 0.000000
0.790034 0.051176 0.000000
0.016930 0.148227 0.000000
0.697107 0.081686 0.000000
0.764626 0.058015 0.000000
0.570713 0.022234 0.000000
0.370273 0.160347 0.000000
0.282218 0.054491 0.000000
0.357421 0.070621 0.000000
0.365601 0.024262 0.000000
0.272194 0.106488 0.000000
0.312042 0.060756 0.000000
0.146286 0.128620 0.000000
0.253539 0.074318 0.000000
0.240547 0.038541 0.000000
0.100000 -0.075000 0.000000
0.100000 -0.050000 0.000000
0.100000 -0.025000 0.000000
0.100000 0.000000 0.000000
0.621725 0.020869 0.000000
0.547607 0.029133 0.000000
0.636695 0.051497 0.000000
0.885533 0.031028 0.000000
0.375203 0.049334 0.000000
0.863269 0.022451 0.000000
0.815414 0.097857 0.000000
0.456459 0.064872 0.000000
0.809792 0.028817 0.000000
0.820142 0.050515 0.000000
0.592211 0.034675 0.000000
0.577400 0.088743 0.000000
0.745732 0.077702 0.000000
0.745465 0.045542 0.000000
0.426050 0.087013 0.000000
0.394403 0.022184 0.000000
0.668848 0.024145 0.000000
0.576291 0.115004 0.000000
0.520534 0.072011 0.000000
0.413901 0.060117 0.000000
0.125000 -0.075000 0.000000
0.125000 -0.050000 0.000000
0.125000 -0.025000 0.000000
0.125000 0.000000 0.000000
0.831475 0.074969 0.000000
0.902104 0.101261 0.000000
0.998785 0.107835 0.000000
0.910108 0.022874 0.000000
0.846606 0.157575 0.000000
0.737301 0.023627 0.000000
0.532168 0.124021 0.000000
0.756462 0.147095 0.000000
0.926739 0.079851 0.000000
0.850909 0.081415 0.000000
0.942564 0.062566 0.000000
0.736532 0.142959 0.000000
0.646969 0.032102 0.000000
0.684563 0.060699 0.000000
0.505937 0.019983 0.000000
0.719157 0.065948 0.000000
0.645301 0.093605 0.000000
0.287436 0.110849 0.000000
0.663555 0.058380 0.000000
0.217490 0.100657 0.000000
0.150000 -0.075000 0.000000
0.150000 -0.050000 0.000000
0.150000 -0.025000 0.000000
0.150000 0.000000 0.000000
0.491323 0.108977 0.000000
0.987997 0.022835 0.000000
0.868766 0.130782 0.000000
0.493612 0.069015 0.000000
0.951760 0.043336 0.000000
0.239354 0.095117 0.000000
0.989606 0.083210 0.000000
0.630671 0.082864 0.000000
1.002007 0.066046 0.000000
0.917177 0.112367 0.000000
0.916625 0.047008 0.000000
0.832288 0.023135 0.000000
0.882705 0.053042 0.000000
0.904064 0.064175 0.000000
0.862212 0.060563 0.000000
0.760106 0.093543 0.000000
0.763524 0.027244 0.000000
0.783458 0.098558 0.000000
0.782967 0.075793 0.000000
0.560034 0.097224 0.000000
0.175000 -0.075000 0.000000
0.175000 -0.050000 0.000000
0.175000 -0.025000 0.000000
0.175000 0.000000 0.000000
0.145512 0.083710 0.000000
0.850440 0.138217 0.000000
0.978487 0.146262 0.000000
0.986882 0.122543 0.000000
0.966747 0.106037 0.000000
0.336987 0.131588 0.000000
0.935130 0.025268 0.000000
0.451613 0.115510 0.000000
0.495324 0.037081 0.000000
0.964037 0.025377 0.000000
0.789122 0.143843 0.000000
0.875968 0.115360 0.000000
0.704635 0.129119 0.000000
0.967250 0.076655 0.000000
0.975857 0.058693 0.000000
0.577044 0.047111 0.000000
1.002578 0.037727 0.000000
0.680882 0.106712 0.000000
0.506991 0.156674 0.000000
0.722659 0.132296 0.000000
0.200000 -0.075000 0.000000
0.200000 -0.050000 0.000000
0.200000 -0.025000 0.000000
0.200000 0.000000 0.000000
0.597738 0.081310 0.000000
0.253334 0.109240 0.000000
0.491749 0.090776 0.000000
0.935536 0.127994 0.000000
0.482502 0.048028 0.000000
0.616411 0.096214 0.000000
0.745876 0.115999 0.000000
0.948248 0.120360 0.000000
0.674640 0.139142 0.000000
0.318981 0.123861 0.000000
0.984080 0.161492 0.000000
0.847429 0.043376 0.000000
0.073266 0.045817 0.000000
0.618764 0.044381 0.000000
0.834369 0.112138 0.000000
0.353472 0.130568 0.000000
0.859013 0.102230 0.000000
0.582674 0.135197 0.000000
0.938877 0.096432 0.000000
0.807190 0.072213 0.000000
0.225000 -0.075000 0.000000
0.225000 -0.050000 0.000000
0.225000 -0.025000 0.000000
0.225000 0.000000 0.000000
0.517469 0.166473 0.000000
0.930026 0.606567 0.000000
0.794809 0.117646 0.000000
0.294536 0.070472 0.000000
0.310602 0.089706 0.000000
0.032173 0.111376 0.000000
0.708622 0.102325 0.000000
1.005932 0.143168 0.000000
0.804953 0.142368 0.000000
0.404252 0.123506 0.000000
0.863551 0.170555 0.000000
0.251408 0.134416 0.000000
0.458647 0.037602 0.000000
0.669380 0.080279 0.000000
0.285320 0.146702 0.000000
0.533319 0.086420 0.000000
0.687478 0.031812 0.000000
0.020477 0.085792 0.000000
0.454011 0.194669 0.000000
0.471229 0.085138 0.000000
0.250000 -0.075000 0.000000
0.250000 -0.050000 0.000000
0.250000 -0.025000 0.000000
0.250000 0.000000 0.000000
0.903674 0.140125 0.000000
0.645918 0.125504 0.000000
0.565784 0.135803 0.000000
0.550917 0.128814 0.000000
0.411125 0.155299 0.000000
0.661940 0.109360 0.000000
0.491131 0.155435 0.000000
0.436617 0.075664 0.000000
0.432203 0.048356 0.000000
0.764247 0.125960 0.000000
0.390728 0.085029 0.000000
0.053072 0.158297 0.000000
0.371613 0.133579 0.000000
0.709210 0.024585 0.000000
0.555836 0.067275 0.000000
0.422563 0.129489 0.000000
0.539647 0.059207 0.000000
0.889742 0.083762 0.000000
0.046560 0.113538 0.000000
0.822926 0.130938 0.000000
0.275000 -0.075000 0.000000
0.275000 -0.050000 0.000000
0.275000 -0.025000 0.000000
0.275000 0.000000 0.000000
0.300000 -0.075000 0.000000
0.300000 -0.050000 0.000000
0.300000 -0.025000 0.000000
0.300000 0.000000 0.000000
0.325000 -0.075000 0.000000
0.325000 -0.050000 0.000000
0.325000 -0.025000 0.000000
0.325000 0.000000 0.000000
0.350000 -0.075000 0.000000
0.350000 -0.050000 0.000000
0.350000 -0.025000 0.000000
0.350000 0.000000 0.000000
0.375000 -0.075000 0.000000
0.375000 -0.050000 0.000000
0.375000 -0.025000 0.000000
0.375000 0.000000 0.000000
0.400000 -0.075000 0.000000
0.400000 -0.050000 0.000000
0.400000 -0.025000 0.000000
0.400000 0.000000 0.000000
0.425000 -0.075000 0.000000
0.425000 -0.050000 0.000000
0.425000 -0.025000 0.000000
0.425000 0.000000 0.000000
0.450000 -0.075000 0.000000
0.450000 -0.050000 0.000000
0.450000 -0.025000 0.000000
0.450000 0.000000 0.000000
0.475000 -0.075000 0.000000
0.475000 -0.050000 0.000000
0.475000 -0.025000 0.000000
0.475000 0.000000 0.000000
0.500000 -0.075000 0.000000
0.500000 -0.050000 0.000000
0.500000 -0.025000 0.000000
0.500000 0.000000 0.000000
0.525000 -0.075000 0.000000
0.525000 -0.050000 0.000000
0.525000 -0.025000 0.000000
0.525000 0.000000 0.000000
0.550000 -0.075000 0.000000
0.550000 -0.050000 0.000000
0.550000 -0.025000 0.000000
0.550000 0.000000 0.000000
0.575000 -0.075000 0.000000
0.575000 -0.050000 0.000000
0.575000 -0.025000 0.000000
0.575000 0.000000 0.000000
0.600000 -0.075000 0.000000
0.600000 -0.050000 0.000000
0.600000 -0.025000 0.000000
0.600000 0.000000 0.000000
0.625000 -0.075000 0.000000
0.625000 -0.050000 0.000000
0.625000 -0.025000 0.000000
0.625000 0.000000 0.000000
0.650000 -0.075000 0.000000
0.650000 -0.050000 0.000000
0.650000 -0.025000 0.000000
0.650000 0.000000 0.000000
0.675000 -0.075000 0.000000
0.675000 -0.050000 0.000000
0.675000 -0.025000 0.000000
0.675000 0.000000 0.000000
0.700000 -0.075000 0.000000
0.700000 -0.050000 0.000000
0.700000 -0.025000 0.000000
0.700000 0.000000 0.000000
0.725000 -0.075000 0.000000
0.725000 -0.050000 0.000000
0.725000 -0.025000 0.000000
0.725000 0.000000 0.000000
0.750000 -0.075000 0.000000
0.750000 -0.050000 0.000000
0.750000 -0.025000 0.000000
0.750000 0.000000 0.000000
0.775000 -0.075000 0.000000
0.775000 -0.050000 0.000000
0.775000 -0.025000 0.000000
0.775000 0.000000 0.000000
0.800000 -0.075000 0.000000
0.800000 -0.050000 0.000000
0.800000 -0.025000 0.000000
0.800000 0.000000 0.000000
0.825000 -0.075000 0.000000
0.825000 -0.050000 0.000000
0.825000 -0.025000 0.000000
0.825000 0.000000 0.000000
0.850000 -0.075000 0.000000
0.850000 -0.050000 0.000000
0.850000 -0.025000 0.000000
0.850000 0.000000 0.000000
0.875000 -0.075000 0.000000
0.875000 -0.050000 0.000000
0.875000 -0.025000 0.000000
0.875000 0.000000 0.000000
0.900000 -0.075000 0.000000
0.900000 -0.050000 0.000000
0.900000 -0.025000 0.000000
0.900000 0.000000 0.000000
0.925000 -0.075000 0.000000
0.925000 -0.050000 0.000000
0.925000 -0.025000 0.000000
0.925000 0.000000 0.000000
0.950000 -0.075000 0.000000
0.950000 -0.050000 0.000000
0.950000 -0.025000 0.000000
0.950000 0.000000 0.000000
0.975000 -0.075000 0.000000
0.975000 -0.050000 0.000000
0.975000 -0.025000 0.000000
0.975000 0.000000 0.000000
1.000000 -0.075000 0.000000
1.000000 -0.050000 0.000000
1.000000 -0.025000 0.000000
1.000000 0.000000 0.000000
1.025000 -0.075000 0.000000
1.025000 -0.050000 0.000000
1.025000 -0.025000 0.000000
1.025000 0.000000 0.000000
1.025000 0.025000 0.000000
1.025000 0.050000 0.000000
1.025000 0.075000 0.000000
1.025000 0.100000 0.000000
1.025000 0.125000 0.000000
1.025000 0.150000 0.000000
1.025000 0.175000 0.000000
1.025000 0.200000 0.000000
1.025000 0.225000 0.000000
1.025000 0.250000 0.000000
1.025000 0.275000 0.000000
1.025000 0.300000 0.000000
1.025000 0.325000 0.000000
1.025000 0.350000 0.000000
1.025000 0.375000 0.000000
1.025000 0.400000 0.000000
1.025000 0.425000 0.000000
1.025000 0.450000 0.000000
1.025000 0.475000 0.000000
1.025000 0.500000 0.000000
1.025000 0.525000 0.000000
1.025000 0.550000 0.000000
1.025000 0.575000 0.000000
1.025000 0.600000 0.000000
1.050000 -0.075000 0.000000
1.050000 -0.050000 0.000000
1.050000 -0.025000 0.000000
1.050000 0.000000 0.000000
1.050000 0.025000 0.000000
1.050000 0.050000 0.000000
1.050000 0.075000 0.000000
1.050000 0.100000 0.000000
1.050000 0.125000 0.000000
1.050000 0.150000 0.000000
1.050000 0.175000 0.000000
1.050000 0.200000 0.000000
1.050000 0.225000 0.000000
1.050000 0.250000 0.000000
1.050000 0.275000 0.000000
1.050000 0.300000 0.000000
1.050000 0.325000 0.000000
1.050000 0.350000 0.000000
1.050000 0.375000 0.000000
1.050000 0.400000 0.000000
1.050000 0.425000 0.000000
1.050000 0.450000 0.000000
1.050000 0.475000 0.000000
1.050000 0.500000 0.000000
1.050000 0.525000 0.000000
1.050000 0.550000 0.000000
1.050000 0.575000 0.000000
1.050000 0.600000 0.000000
1.075000 -0.075000 0.000000
1.075000 -0.050000 0.000000
1.075000 -0.025000 0.000000
1.075000 0.000000 0.000000
1.075000 0.025000 0.000000
1.075000 0.050000 0.000000
1.075000 0.075000 0.000000
1.075000 0.100000 0.000000
1.075000 0.125000 0.000000
1.075000 0.150000 0.000000
1.075000 0.175000 0.000000
1.075000 0.200000 0.000000
1.075000 0.225000 0.000000
1.075000 0.250000 0.000000
1.075000 0.275000 0.000000
1.075000 0.300000 0.000000
1.075000 0.325000 0.000000
1.075000 0.350000 0.000000
1.075000 0.375000 0.000000
1.075000 0.400000 0.000000
1.075000 0.425000 0.000000
1.075000 0.450000 0.000000
1.075000 0.475000 0.000000
1.075000 0.500000 0.000000
1.075000 0.525000 0.000000
1.075000 0.550000 0.000000
1.075000 0.575000 0.000000
1.075000 0.600000 0.000000
1.100000 -0.075000 0.000000
1.100000 -0.050000 0.000000
1.100000 -0.025000 0.000000
1.100000 0.000000 0.000000
1.100000 0.025000 0.000000
1.100000 0.050000 0.000000
1.100000 0.075000 0.000000
1.100000 0.100000 0.000000
1.100000 0.125000 0.000000
1.100000 0.150000 0.000000
1.100000 0.175000 0.000000
1.100000 0.200000 0.000000
1.100000 0.225000 0.000000
1.100000 0.250000 0.000000
1.100000 0.275000 0.000000
1.100000 0.300000 0.000000
1.100000 0.325000 0.000000
1.100000 0.350000 0.000000
1.100000 0.375000 0.000000
1.100000 0.400000 0.000000
1.100000 0.425000 0.000000
1.100000 0.450000 0.000000
1.100000 0.475000 0.000000
1.100000 0.500000 0.000000
1.100000 0.525000 0.000000
1.100000 0.550000 0.000000
1.100000 0.575000 0.000000
1.100000 0.600000 0.000000
</DataArray>
</Points>
<PointData>
<DataArray NumberOfComponents='1' type='Int32' Name='ParticleType' format='ascii'>
3
3
3
3
3
3
3
3
3
3
3
3
3
3
3
3
3
3
3
3
3
3
3
3
3
3
2
2
3
3
3
3
3
3
3
3
3
3
3
3
3
3
3
3
3
3
3
3
3
3
3
3
3
3
2
2
3
3
2
2
2
2
2
2
2
2
2
2
2
2
2
2
2
2
2
2
2
2
2
2
2
2
2
2
3
3
2
2
2
2
2
2
2
2
2
2
2
2
2
2
2
2
2
2
2
2
2
2
2
2
2
2
3
3
2
2
0
0
0
0
0
0
0
0
0
0
0
0
0
0
0
0
0
0
0
0
3
3
2
2
0
0
0
0
0
0
0
0
0
0
0
0
0
0
0
0
0
0
0
0
3
3
2
2
0
0
0
0
0
0
0
0
0
0
0
0
0
0
0
0
0
0
0
0
3
3
2
2
0
0
0
0
0
0
0
0
0
0
0
0
0
0
0
0
0
0
0
0
3
3
2
2
0
0
0
0
0
0
0
0
0
0
0
0
0
0
0
0
0
0
0
0
3
3
2
2
0
0
0
0
0
0
0
0
0
0
0
0
0
0
0
0
0
0
0
0
3
3
2
2
0
0
0
0
0
0
0
0
0
0
0
0
0
0
0
0
0
0
0
0
3
3
2
2
0
0
0
0
0
0
0
0
0
0
0
0
0
0
0
0
0
0
0
0
3
3
2
2
0
0
0
0
0
0
0
0
0
0
0
0
0
0
0
0
0
0
0
0
3
3
2
2
0
0
0
0
0
0
0
0
0
0
0
0
0
0
0
0
0
0
0
0
3
3
2
2
3
3
2
2
3
3
2
2
3
3
2
2
3
3
2
2
3
3
2
2
3
3
2
2
3
3
2
2
3
3
2
2
3
3
2
2
3
3
2
2
3
3
2
2
3
3
2
2
3
3
2
2
3
3
2
2
3
3
2
2
3
3
2
2
3
3
2
2
3
3
2
2
3
3
2
2
3
3
2
2
3
3
2
2
3
3
2
2
3
3
2
2
3
3
2
2
3
3
2
2
3
3
2
2
3
3
2
2
3
3
2
2
3
3
2
2
3
3
2
2
2
2
2
2
2
2
2
2
2
2
2
2
2
2
2
2
2
2
2
2
2
2
2
2
3
3
2
2
2
2
2
2
2
2
2
2
2
2
2
2
2
2
2
2
2
2
2
2
2
2
2
2
3
3
3
3
3
3
3
3
3
3
3
3
3
3
3
3
3
3
3
3
3
3
3
3
3
3
2
2
3
3
3
3
3
3
3
3
3
3
3
3
3
3
3
3
3
3
3
3
3
3
3
3
3
3
2
2
</DataArray>
<DataArray NumberOfComponents='1' type='Float32' Name='Velocity' format='ascii'>
0.000000
0.000000
0.000000
0.000000
0.000000
0.000000
0.000000
0.000000
0.000000
0.000000
0.000000
0.000000
0.000000
0.000000
0.000000
0.000000
0.000000
0.000000
0.000000
0.000000
0.000000
0.000000
0.000000
0.000000
0.000000
0.000000
0.000000
0.000000
0.000000
0.000000
0.000000
0.000000
0.000000
0.000000
0.000000
0.000000
0.000000
0.000000
0.000000
0.000000
0.000000
0.000000
0.000000
0.000000
0.000000
0.000000
0.000000
0.000000
0.000000
0.000000
0.000000
0.000000
0.000000
0.000000
0.000000
0.000000
0.000000
0.000000
0.000000
0.000000
0.000000
0.000000
0.000000
0.000000
0.000000
0.000000
0.000000
0.000000
0.000000
0.000000
0.000000
0.000000
0.000000
0.000000
0.000000
0.000000
0.000000
0.000000
0.000000
0.000000
0.000000
0.000000
0.000000
0.000000
0.000000
0.000000
0.000000
0.000000
0.000000
0.000000
0.000000
0.000000
0.000000
0.000000
0.000000
0.000000
0.000000
0.000000
0.000000
0.000000
0.000000
0.000000
0.000000
0.000000
0.000000
0.000000
0.000000
0.000000
0.000000
0.000000
0.000000
0.000000
0.000000
0.000000
0.000000
0.000000
0.803546
0.326874
1.222914
0.281979
0.496110
0.330711
0.502356
0.414241
0.289702
0.531932
0.321250
0.915682
0.184731
0.534634
0.829177
0.319773
0.566272
0.164937
0.548556
0.390992
0.000000
0.000000
0.000000
0.000000
0.579553
1.416848
0.977999
2.508984
2.008889
0.684527
1.340670
0.349848
0.907487
0.456341
1.531687
0.634462
0.441447
0.978786
0.898240
1.687866
0.265919
0.387328
0.278987
0.249445
0.000000
0.000000
0.000000
0.000000
1.135514
1.572503
0.490273
0.800191
0.769139
0.591747
0.371153
1.268841
0.996940
0.595996
0.734612
1.166409
0.255286
0.374898
0.762676
1.127505
0.487598
2.106367
0.520183
0.501266
0.000000
0.000000
0.000000
0.000000
0.392754
0.715703
0.644428
0.429541
0.730033
0.234437
0.334754
1.347568
0.639393
0.144309
0.686212
0.902590
0.723896
0.334209
1.045435
0.429178
0.385318
2.089969
0.684915
1.083225
0.000000
0.000000
0.000000
0.000000
0.625015
0.360926
0.346381
0.261404
0.790330
0.638727
1.630502
0.968037
0.271548
0.685685
0.284628
0.691250
0.365201
0.505624
0.318756
0.597854
1.303771
1.254504
0.453275
1.675720
0.000000
0.000000
0.000000
0.000000
1.445082
0.285912
1.299965
0.759474
0.312510
1.354675
0.109051
0.990303
0.108284
0.614622
0.215209
0.501342
0.144203
0.320360
0.488846
0.671943
0.328270
0.625147
0.507369
1.097663
0.000000
0.000000
0.000000
0.000000
1.766548
0.843947
0.550254
0.081664
0.651623
1.422736
0.320682
1.614284
0.788919
0.088722
0.674001
0.833913
0.882961
0.424732
0.400579
0.539646
0.305568
1.026511
1.422538
1.072818
0.000000
0.000000
0.000000
0.000000
0.680821
1.848129
1.183806
0.807435
0.773161
1.432267
0.449778
0.582212
1.206666
1.239725
0.459944
0.660624
0.505573
0.629996
0.467008
1.738332
0.379352
0.678435
0.047131
0.612791
0.000000
0.000000
0.000000
0.000000
1.038510
3.689368
1.055602
0.392238
1.070272
1.259791
0.768427
0.192852
0.907081
1.662385
0.915885
1.544865
0.537649
1.059416
1.566549
0.634384
0.469838
2.867342
0.607159
1.295634
0.000000
0.000000
0.000000
0.000000
1.302887
0.963106
1.048204
0.608886
4.315415
0.763687
1.520808
0.902129
0.612617
1.048819
0.788355
0.341375
1.283795
0.322619
0.164326
1.283323
0.848894
0.664756
1.052624
0.942633
0.000000
0.000000
0.000000
0.000000
0.000000
0.000000
0.000000
0.000000
0.000000
0.000000
0.000000
0.000000
0.000000
0.000000
0.000000
0.000000
0.000000
0.000000
0.000000
0.000000
0.000000
0.000000
0.000000
0.000000
0.000000
0.000000
0.000000
0.000000
0.000000
0.000000
0.000000
0.000000
0.000000
0.000000
0.000000
0.000000
0.000000
0.000000
0.000000
0.000000
0.000000
0.000000
0.000000
0.000000
0.000000
0.000000
0.000000
0.000000
0.000000
0.000000
0.000000
0.000000
0.000000
0.000000
0.000000
0.000000
0.000000
0.000000
0.000000
0.000000
0.000000
0.000000
0.000000
0.000000
0.000000
0.000000
0.000000
0.000000
0.000000
0.000000
0.000000
0.000000
0.000000
0.000000
0.000000
0.000000
0.000000
0.000000
0.000000
0.000000
0.000000
0.000000
0.000000
0.000000
0.000000
0.000000
0.000000
0.000000
0.000000
0.000000
0.000000
0.000000
0.000000
0.000000
0.000000
0.000000
0.000000
0.000000
0.000000
0.000000
0.000000
0.000000
0.000000
0.000000
0.000000
0.000000
0.000000
0.000000
0.000000
0.000000
0.000000
0.000000
0.000000
0.000000
0.000000
0.000000
0.000000
0.000000
0.000000
0.000000
0.000000
0.000000
0.000000
0.000000
0.000000
0.000000
0.000000
0.000000
0.000000
0.000000
0.000000
0.000000
0.000000
0.000000
0.000000
0.000000
0.000000
0.000000
0.000000
0.000000
0.000000
0.000000
0.000000
0.000000
0.000000
0.000000
0.000000
0.000000
0.000000
0.000000
0.000000
0.000000
0.000000
0.000000
0.000000
0.000000
0.000000
0.000000
0.000000
0.000000
0.000000
0.000000
0.000000
0.000000
0.000000
0.000000
0.000000
0.000000
0.000000
0.000000
0.000000
0.000000
0.000000
0.000000
0.000000
0.000000
0.000000
0.000000
0.000000
0.000000
0.000000
0.000000
0.000000
0.000000
0.000000
0.000000
0.000000
0.000000
0.000000
0.000000
0.000000
0.000000
0.000000
0.000000
0.000000
0.000000
0.000000
0.000000
0.000000
0.000000
0.000000
0.000000
0.000000
0.000000
0.000000
0.000000
0.000000
0.000000
0.000000
0.000000
0.000000
0.000000
0.000000
0.000000
0.000000
0.000000
0.000000
0.000000
0.000000
0.000000
0.000000
0.000000
0.000000
0.000000
0.000000
0.000000
0.000000
0.000000
0.000000
0.000000
0.000000
0.000000
</DataArray>
<DataArray NumberOfComponents='1' type='Float32' Name='pressure' format='ascii'>
0.000000
0.000000
0.000000
0.000000
0.000000
0.000000
0.000000
0.000000
0.000000
0.000000
0.000000
0.000000
0.000000
0.000000
0.000000
0.000000
0.000000
0.000000
0.000000
0.000000
0.000000
0.000000
0.000000
0.000000
0.000000
0.000000
0.000000
0.000000
0.000000
0.000000
0.000000
0.000000
0.000000
0.000000
0.000000
0.000000
0.000000
0.000000
0.000000
0.000000
0.000000
0.000000
0.000000
0.000000
0.000000
0.000000
0.000000
0.000000
0.000000
0.000000
0.000000
0.000000
0.000000
0.000000
0.000000
0.000000
0.000000
0.000000
572.438843
1011.495728
3995.116211
4531.661133
2892.755127
2394.229980
2439.232422
4793.281250
1012.697632
0.000000
0.000000
0.000000
0.000000
0.000000
0.000000
0.000000
0.000000
0.000000
0.000000
0.000000
0.000000
0.000000
0.000000
0.000000
0.000000
0.000000
0.000000
0.000000
214.058044
0.000000
0.000000
0.000000
0.000000
0.000000
0.000000
1204.302979
0.000000
0.000000
0.000000
0.000000
0.000000
0.000000
0.000000
0.000000
0.000000
0.000000
0.000000
0.000000
0.000000
0.000000
0.000000
0.000000
0.000000
0.000000
0.000000
0.000000
0.000000
0.000000
0.000000
1290.322021
0.000000
1575.441406
2746.601807
0.000000
0.000000
2311.815186
0.000000
0.000000
0.000000
3578.348633
296.106049
0.000000
0.000000
0.000000
943.116211
1724.362183
0.000000
2207.666504
0.000000
0.000000
718.452820
0.000000
0.000000
0.000000
0.000000
0.000000
0.000000
61.805557
4199.627930
553.589722
393.255768
575.139404
0.000000
341.275604
0.000000
0.000000
340.111786
0.000000
124.154892
0.000000
0.000000
0.000000
0.000000
0.000000
0.000000
0.000000
0.000000
0.000000
0.000000
566.071899
17.036776
2201.142822
0.000000
0.000000
1207.407104
953.037170
791.268982
0.000000
3176.274902
1348.458984
1603.899780
0.000000
978.193848
0.000000
0.000000
0.000000
0.000000
0.000000
1938.914795
0.000000
0.000000
1092.815552
0.000000
1192.505615
1160.250366
936.937561
0.000000
0.000000
1550.971313
790.388611
737.798035
0.000000
731.837341
1266.700195
0.000000
1001.976746
1503.339478
0.000000
0.000000
0.000000
0.000000
0.000000
1468.530273
963.239868
911.569153
0.000000
0.000000
1718.902344
0.000000
2360.705566
0.000000
0.000000
1513.044800
767.357910
113.467484
0.000000
675.099792
541.485352
2752.750488
1122.845703
313.371338
0.000000
0.000000
0.000000
0.000000
0.000000
1284.131470
1606.900391
0.000000
1857.003906
0.000000
0.000000
2579.296143
0.000000
488.944092
0.000000
1502.140991
166.806519
660.127502
1437.241333
1397.376953
1625.738525
758.944519
243.510834
1222.442505
1211.046875
2513.092285
0.000000
0.000000
0.000000
430.175232
992.915894
0.000000
0.000000
0.000000
0.000000
0.000000
0.000000
269.320984
0.000000
756.144714
879.258118
0.000000
170.188568
0.000000
757.262512
0.000000
0.000000
501.074615
0.000000
0.000000
0.000000
0.000000
0.000000
857.057922
128.738266
0.000000
0.000000
0.000000
0.000000
1554.639893
0.000000
3164.523193
0.000000
0.000000
1569.699219
0.000000
960.903198
0.000000
1322.005493
426.513519
1387.221802
491.684357
0.000000
1218.601196
1234.753418
0.000000
0.000000
0.000000
0.000000
0.000000
0.000000
51.538654
1328.087646
0.000000
0.000000
96.273766
0.000000
0.000000
0.000000
0.000000
0.000000
746.306641
684.695129
0.000000
0.000000
624.186279
0.000000
0.000000
0.000000
0.000000
0.000000
17.649073
0.000000
0.000000
0.000000
0.000000
0.000000
0.000000
0.000000
0.000000
756.087585
1885.373535
369.933533
0.000000
0.000000
0.000000
1686.005493
0.000000
0.000000
0.000000
0.000000
0.000000
0.000000
0.000000
0.000000
0.000000
0.000000
0.000000
0.000000
256.072327
560.092651
0.000000
0.000000
0.000000
0.000000
0.000000
0.000000
0.000000
0.000000
0.000000
0.000000
1650.272827
1129.460083
0.000000
0.000000
2574.169678
3251.535400
0.000000
0.000000
1478.283203
1548.368774
0.000000
0.000000
2181.455811
1.418812
0.000000
0.000000
1068.286621
0.000000
0.000000
0.000000
4116.857910
3525.437256
0.000000
0.000000
2954.458740
3881.459961
0.000000
0.000000
1528.658325
1333.367676
0.000000
0.000000
2291.770752
1215.260498
0.000000
0.000000
913.793823
0.000000
0.000000
0.000000
2315.637939
1064.741211
0.000000
0.000000
75.935593
0.000000
0.000000
0.000000
1044.673828
919.524231
0.000000
0.000000
1046.870483
1131.063721
0.000000
0.000000
1559.677979
1305.626953
0.000000
0.000000
1627.773682
2175.710693
0.000000
0.000000
1810.040649
1887.073975
0.000000
0.000000
1689.672729
1431.200806
0.000000
0.000000
2735.601318
2986.144043
0.000000
0.000000
2926.733643
2851.753174
0.000000
0.000000
2451.466553
775.245239
0.000000
0.000000
2243.882324
1632.665039
0.000000
0.000000
2065.043213
1976.477417
0.000000
0.000000
999.790100
1733.398193
0.000000
0.000000
1933.661011
2348.551025
0.000000
0.000000
1418.159302
937.902527
0.000000
0.000000
836.858887
0.000000
115.644501
1749.442505
0.000000
0.000000
0.000000
0.000000
0.000000
0.000000
0.000000
0.000000
0.000000
0.000000
0.000000
0.000000
0.000000
0.000000
0.000000
0.000000
0.000000
0.000000
0.000000
0.000000
0.000000
0.000000
0.000000
0.000000
691.744812
733.117798
1205.387695
1896.542847
1038.671753
0.000000
1042.415405
2125.215332
0.000000
0.000000
0.000000
0.000000
0.000000
0.000000
0.000000
0.000000
0.000000
0.000000
0.000000
0.000000
0.000000
0.000000
0.000000
0.000000
0.000000
0.000000
0.000000
0.000000
0.000000
0.000000
0.000000
0.000000
0.000000
0.000000
0.000000
0.000000
0.000000
0.000000
0.000000
0.000000
0.000000
0.000000
0.000000
0.000000
0.000000
0.000000
0.000000
0.000000
0.000000
0.000000
0.000000
0.000000
0.000000
0.000000
0.000000
0.000000
0.000000
0.000000
0.000000
0.000000
0.000000
0.000000
0.000000
0.000000
0.000000
0.000000
0.000000
0.000000
0.000000
0.000000
0.000000
0.000000
0.000000
0.000000
0.000000
0.000000
0.000000
0.000000
0.000000
0.000000
0.000000
0.000000
</DataArray>
</PointData>
<Cells>
<DataArray type='Int32' Name='connectivity' format='ascii'>
0
1
2
3
4
5
6
7
8
9
10
11
12
13
14
15
16
17
18
19
20
21
22
23
24
25
26
27
28
29
30
31
32
33
34
35
36
37
38
39
40
41
42
43
44
45
46
47
48
49
50
51
52
53
54
55
56
57
58
59
60
61
62
63
64
65
66
67
68
69
70
71
72
73
74
75
76
77
78
79
80
81
82
83
84
85
86
87
88
89
90
91
92
93
94
95
96
97
98
99
100
101
102
103
104
105
106
107
108
109
110
111
112
113
114
115
116
117
118
119
120
121
122
123
124
125
126
127
128
129
130
131
132
133
134
135
136
137
138
139
140
141
142
143
144
145
146
147
148
149
150
151
152
153
154
155
156
157
158
159
160
161
162
163
164
165
166
167
168
169
170
171
172
173
174
175
176
177
178
179
180
181
182
183
184
185
186
187
188
189
190
191
192
193
194
195
196
197
198
199
200
201
202
203
204
205
206
207
208
209
210
211
212
213
214
215
216
217
218
219
220
221
222
223
224
225
226
227
228
229
230
231
232
233
234
235
236
237
238
239
240
241
242
243
244
245
246
247
248
249
250
251
252
253
254
255
256
257
258
259
260
261
262
263
264
265
266
267
268
269
270
271
272
273
274
275
276
277
278
279
280
281
282
283
284
285
286
287
288
289
290
291
292
293
294
295
296
297
298
299
300
301
302
303
304
305
306
307
308
309
310
311
312
313
314
315
316
317
318
319
320
321
322
323
324
325
326