<?xml version='1.0' encoding='UTF-8'?>
<VTKFile xmlns='VTK' byte_order='LittleEndian' version='0.1' type='UnstructuredGrid'>
<UnstructuredGrid>
<Piece NumberOfCells='584' NumberOfPoints='584'>
<Points>
<DataArray NumberOfComponents='3' type='Float32' Name='Position' format='ascii'>
-0.075000 -0.075000 0.000000
-0.075000 -0.050000 0.000000
-0.075000 -0.025000 0.000000
-0.075000 0.000000 0.000000
-0.075000 0.025000 0.000000
-0.075000 0.050000 0.000000
-0.075000 0.075000 0.000000
-0.075000 0.100000 0.000000
-0.075000 0.125000 0.000000
-0.075000 0.150000 0.000000
-0.075000 0.175000 0.000000
-0.075000 0.200000 0.000000
-0.075000 0.225000 0.000000
-0.075000 0.250000 0.000000
-0.075000 0.275000 0.000000
-0.075000 0.300000 0.000000
-0.075000 0.325000 0.000000
-0.075000 0.350000 0.000000
-0.075000 0.375000 0.000000
-0.075000 0.400000 0.000000
-0.075000 0.425000 0.000000
-0.075000 0.450000 0.000000
-0.075000 0.475000 0.000000
-0.075000 0.500000 0.000000
-0.075000 0.525000 0.000000
-0.075000 0.550000 0.000000
-0.075000 0.575000 0.000000
-0.075000 0.600000 0.000000
-0.050000 -0.075000 0.000000
-0.050000 -0.050000 0.000000
-0.050000 -0.025000 0.000000
-0.050000 0.000000 0.000000
-0.050000 0.025000 0.000000
-0.050000 0.050000 0.000000
-0.050000 0.075000 0.000000
-0.050000 0.100000 0.000000
-0.050000 0.125000 0.000000
-0.050000 0.150000 0.000000
-0.050000 0.175000 0.000000
-0.050000 0.200000 0.000000
-0.050000 0.225000 0.000000
-0.050000 0.250000 0.000000
-0.050000 0.275000 0.000000
-0.050000 0.300000 0.000000
-0.050000 0.325000 0.000000
-0.050000 0.350000 0.000000
-0.050000 0.375000 0.000000
-0.050000 0.400000 0.000000
-0.050000 0.425000 0.000000
-0.050000 0.450000 0.000000
-0.050000 0.475000 0.000000
-0.050000 0.500000 0.000000
-0.050000 0.525000 0.000000
-0.050000 0.550000 0.000000
-0.050000 0.575000 0.000000
-0.050000 0.600000 0.000000
-0.025000 -0.075000 0.000000
-0.025000 -0.050000 0.000000
-0.025000 -0.025000 0.000000
-0.025000 0.000000 0.000000
-0.025000 0.025000 0.000000
-0.025000 0.050000 0.000000
-0.025000 0.075000 0.000000
-0.025000 0.100000 0.000000
-0.025000 0.125000 0.000000
-0.025000 0.150000 0.000000
-0.025000 0.175000 0.000000
-0.025000 0.200000 0.000000
-0.025000 0.225000 0.000000
-0.025000 0.250000 0.000000
-0.025000 0.275000 0.000000
-0.025000 0.300000 0.000000
-0.025000 0.325000 0.000000
-0.025000 0.350000 0.000000
-0.025000 0.375000 0.000000
-0.025000 0.400000 0.000000
-0.025000 0.425000 0.000000
-0.025000 0.450000 0.000000
-0.025000 0.475000 0.000000
-0.025000 0.500000 0.000000
-0.025000 0.525000 0.000000
-0.025000 0.550000 0.000000
-0.025000 0.575000 0.000000
-0.025000 0.600000 0.000000
0.000000 -0.075000 0.000000
0.000000 -0.050000 0.000000
0.000000 -0.025000 0.000000
0.000000 0.000000 0.000000
0.000000 0.025000 0.000000
0.000000 0.050000 0.000000
0.000000 0.075000 0.000000
0.000000 0.100000 0.000000
0.000000 0.125000 0.000000
0.000000 0.150000 0.000000
0.000000 0.175000 0.000000
0.000000 0.200000 0.000000
0.000000 0.225000 0.000000
0.000000 0.250000 0.000000
0.000000 0.275000 0.000000
0.000000 0.300000 0.000000
0.000000 0.325000 0.000000
0.000000 0.350000 0.000000
0.000000 0.375000 0.000000
0.000000 0.400000 0.000000
0.000000 0.425000 0.000000
0.000000 0.450000 0.000000
0.000000 0.475000 0.000000
0.000000 0.500000 0.000000
0.000000 0.525000 0.000000
0.000000 0.550000 0.000000
0.000000 0.575000 0.000000
0.000000 0.600000 0.000000
0.025000 -0.075000 0.000000
0.025000 -0.050000 0.000000
0.025000 -0.025000 0.000000
0.025000 0.000000 0.000000
0.176006 0.023929 0.000000
0.152630 0.028105 0.000000
0.132005 0.025190 0.000000
0.088587 0.020479 0.000000
0.197724 0.043669 0.000000
0.042414 0.019952 0.000000
0.254969 0.059712 0.000000
0.176219 0.046681 0.000000
0.114041 0.036972 0.000000
0.084149 0.040556 0.000000
0.144914 0.059619 0.000000
0.126346 0.057329 0.000000
0.060754 0.037473 0.000000
0.021201 0.034299 0.000000
0.029564 0.056702 0.000000
0.028927 0.077016 0.000000
0.066783 0.075842 0.000000
0.025099 0.098707 0.000000
0.025103 0.117656 0.000000
0.052622 0.103314 0.000000
0.050000 -0.075000 0.000000
0.050000 -0.050000 0.000000
0.050000 -0.025000 0.000000
0.050000 0.000000 0.000000
0.210583 0.022376 0.000000
0.237722 0.052672 0.000000
0.334999 0.072985 0.000000
0.355868 0.038922 0.000000
0.313767 0.085494 0.000000
0.325008 0.104397 0.000000
0.301544 0.062448 0.000000
0.428534 0.061521 0.000000
0.215737 0.060312 0.000000
0.257406 0.024193 0.000000
0.288907 0.075959 0.000000
0.273419 0.041487 0.000000
0.055244 0.056992 0.000000
0.263762 0.081453 0.000000
0.111354 0.082580 0.000000
0.173626 0.069467 0.000000
0.097005 0.061651 0.000000
0.150266 0.084963 0.000000
0.074698 0.101223 0.000000
0.087582 0.085653 0.000000
0.075000 -0.075000 0.000000
0.075000 -0.050000 0.000000
0.075000 -0.025000 0.000000
0.075000 0.000000 0.000000
0.232058 0.029454 0.000000
0.326914 0.043146 0.000000
0.328339 0.023737 0.000000
0.305397 0.036683 0.000000
0.439161 0.039221 0.000000
0.533548 0.027359 0.000000
0.559452 0.022689 0.000000
0.356814 0.067365 0.000000
0.453489 0.087631 0.000000
0.488631 0.080230 0.000000
0.380738 0.054657 0.000000
0.268713 0.097976 0.000000
0.235782 0.101795 0.000000
0.222069 0.097621 0.000000
0.207122 0.077746 0.000000
0.165082 0.095607 0.000000
0.179284 0.096437 0.000000
0.284864 0.112997 0.000000
0.249435 0.133458 0.000000
0.117820 0.097537 0.000000
0.100000 -0.075000 0.000000
0.100000 -0.050000 0.000000
0.100000 -0.025000 0.000000
0.100000 0.000000 0.000000
0.394040 0.028806 0.000000
0.363286 0.022557 0.000000
0.507650 0.020598 0.000000
0.710365 0.037382 0.000000
0.284518 0.023526 0.000000
0.611529 0.020065 0.000000
0.616485 0.045086 0.000000
0.590741 0.061060 0.000000
0.539006 0.053143 0.000000
0.566003 0.040250 0.000000
0.398426 0.052282 0.000000
0.412061 0.022670 0.000000
0.453965 0.060978 0.000000
0.473220 0.101115 0.000000
0.380814 0.085620 0.000000
0.201351 0.101533 0.000000
0.416053 0.081949 0.000000
0.399030 0.093703 0.000000
0.319664 0.125864 0.000000
0.302303 0.116220 0.000000
0.125000 -0.075000 0.000000
0.125000 -0.050000 0.000000
0.125000 -0.025000 0.000000
0.125000 0.000000 0.000000
0.743221 0.019191 0.000000
0.595525 0.035195 0.000000
0.916227 0.055013 0.000000
0.894780 0.024642 0.000000
0.895349 0.057861 0.000000
0.449283 0.022156 0.000000
0.682356 0.044959 0.000000
0.742218 0.043424 0.000000
0.696598 0.021357 0.000000
0.597387 0.076165 0.000000
0.725897 0.077661 0.000000
0.657819 0.038217 0.000000
0.543251 0.079492 0.000000
0.433619 0.085935 0.000000
0.373114 0.102984 0.000000
0.479932 0.049249 0.000000
0.628733 0.065424 0.000000
0.350894 0.088179 0.000000
0.503360 0.071160 0.000000
0.329259 0.136478 0.000000
0.150000 -0.075000 0.000000
0.150000 -0.050000 0.000000
0.150000 -0.025000 0.000000
0.150000 0.000000 0.000000
0.966472 0.077558 0.000000
0.916755 0.029352 0.000000
0.971563 0.131956 0.000000
0.941629 0.179064 0.000000
0.955892 0.031095 0.000000
0.951588 0.228918 0.000000
0.879181 0.041772 0.000000
0.930651 0.070101 0.000000
0.864332 0.024488 0.000000
0.829592 0.070541 0.000000
0.841253 0.026165 0.000000
0.652528 0.019881 0.000000
0.771355 0.031209 0.000000
0.795182 0.020629 0.000000
0.641905 0.052571 0.000000
0.556779 0.085852 0.000000
0.507834 0.039682 0.000000
0.566400 0.064150 0.000000
0.519419 0.065672 0.000000
0.468108 0.036477 0.000000
0.175000 -0.075000 0.000000
0.175000 -0.050000 0.000000
0.175000 -0.025000 0.000000
0.175000 0.000000 0.000000
0.857630 0.314652 0.000000
0.982150 0.060240 0.000000
1.004546 0.131082 0.000000
1.003187 0.075061 0.000000
1.000702 0.048658 0.000000
0.984164 0.182525 0.000000
0.994123 0.021577 0.000000
0.984333 0.091577 0.000000
0.961682 0.165526 0.000000
0.974688 0.032215 0.000000
0.915560 0.094878 0.000000
0.963726 0.116912 0.000000
0.867471 0.073453 0.000000
0.804696 0.057090 0.000000
0.736749 0.065132 0.000000
0.888885 0.084516 0.000000
0.822344 0.036778 0.000000
0.682228 0.060725 0.000000
0.628486 0.100083 0.000000
0.645415 0.080361 0.000000
0.200000 -0.075000 0.000000
0.200000 -0.050000 0.000000
0.200000 -0.025000 0.000000
0.200000 0.000000 0.000000
0.917195 0.650155 0.000000
0.996269 0.176261 0.000000
0.947334 0.447791 0.000000
1.002316 0.207039 0.000000
0.952473 0.293360 0.000000
0.949743 0.320592 0.000000
0.961827 0.337244 0.000000
1.000114 0.258977 0.000000
0.986802 0.149003 0.000000
0.927398 0.303429 0.000000
0.998730 0.227959 0.000000
0.938228 0.025700 0.000000
0.952535 0.261091 0.000000
0.947106 0.074019 0.000000
0.815505 0.081334 0.000000
0.888403 0.107640 0.000000
0.931473 0.125167 0.000000
0.843697 0.048626 0.000000
0.791403 0.042625 0.000000
0.716649 0.064786 0.000000
0.225000 -0.075000 0.000000
0.225000 -0.050000 0.000000
0.225000 -0.025000 0.000000
0.225000 0.000000 0.000000
0.981404 0.293830 0.000000
0.973134 0.963465 0.000000
0.979129 0.270173 0.000000
0.899634 0.401272 0.000000
0.880608 0.268568 0.000000
0.909178 0.439846 0.000000
0.962171 0.447246 0.000000
0.992337 0.353603 0.000000
0.997990 0.288882 0.000000
0.960976 0.369324 0.000000
0.988427 0.338648 0.000000
0.939864 0.375854 0.000000
0.845074 0.299625 0.000000
0.901881 0.299842 0.000000
0.969518 0.218499 0.000000
0.981377 0.247485 0.000000
0.952663 0.216359 0.000000
0.941437 0.104252 0.000000
0.868629 0.090640 0.000000
0.761745 0.052064 0.000000
0.250000 -0.075000 0.000000
0.250000 -0.050000 0.000000
0.250000 -0.025000 0.000000
0.250000 0.000000 0.000000
0.987403 0.873895 0.000000
0.903155 0.789468 0.000000
0.918967 0.482637 0.000000
0.949100 0.489231 0.000000
0.848643 0.878432 0.000000
0.982175 0.552733 0.000000
0.847336 0.770472 0.000000
0.906648 0.682511 0.000000
0.819485 0.462902 0.000000
0.971741 0.428822 0.000000
0.893789 0.312754 0.000000
0.924507 0.345305 0.000000
0.947599 0.399982 0.000000
0.779500 0.252880 0.000000
0.924941 0.323235 0.000000
0.895079 0.172619 0.000000
0.935252 0.274013 0.000000
0.990502 0.112076 0.000000
0.938189 0.160081 0.000000
0.919673 0.114237 0.000000
0.275000 -0.075000 0.000000
0.275000 -0.050000 0.000000
0.275000 -0.025000 0.000000
0.275000 0.000000 0.000000
0.300000 -0.075000 0.000000
0.300000 -0.050000 0.000000
0.300000 -0.025000 0.000000
0.300000 0.000000 0.000000
0.325000 -0.075000 0.000000
0.325000 -0.050000 0.000000
0.325000 -0.025000 0.000000
0.325000 0.000000 0.000000
0.350000 -0.075000 0.000000
0.350000 -0.050000 0.000000
0.350000 -0.025000 0.000000
0.350000 0.000000 0.000000
0.375000 -0.075000 0.000000
0.375000 -0.050000 0.000000
0.375000 -0.025000 0.000000
0.375000 0.000000 0.000000
0.400000 -0.075000 0.000000
0.400000 -0.050000 0.000000
0.400000 -0.025000 0.000000
0.400000 0.000000 0.000000
0.425000 -0.075000 0.000000
0.425000 -0.050000 0.000000
0.425000 -0.025000 0.000000
0.425000 0.000000 0.000000
0.450000 -0.075000 0.000000
0.450000 -0.050000 0.000000
0.450000 -0.025000 0.000000
0.450000 0.000000 0.000000
0.475000 -0.075000 0.000000
0.475000 -0.050000 0.000000
0.475000 -0.025000 0.000000
0.475000 0.000000 0.000000
0.500000 -0.075000 0.000000
0.500000 -0.050000 0.000000
0.500000 -0.025000 0.000000
0.500000 0.000000 0.000000
0.525000 -0.075000 0.000000
0.525000 -0.050000 0.000000
0.525000 -0.025000 0.000000
0.525000 0.000000 0.000000
0.550000 -0.075000 0.000000
0.550000 -0.050000 0.000000
0.550000 -0.025000 0.000000
0.550000 0.000000 0.000000
0.575000 -0.075000 0.000000
0.575000 -0.050000 0.000000
0.575000 -0.025000 0.000000
0.575000 0.000000 0.000000
0.600000 -0.075000 0.000000
0.600000 -0.050000 0.000000
0.600000 -0.025000 0.000000
0.600000 0.000000 0.000000
0.625000 -0.075000 0.000000
0.625000 -0.050000 0.000000
0.625000 -0.025000 0.000000
0.625000 0.000000 0.000000
0.650000 -0.075000 0.000000
0.650000 -0.050000 0.000000
0.650000 -0.025000 0.000000
0.650000 0.000000 0.000000
0.675000 -0.075000 0.000000
0.675000 -0.050000 0.000000
0.675000 -0.025000 0.000000
0.675000 0.000000 0.000000
0.700000 -0.075000 0.000000
0.700000 -0.050000 0.000000
0.700000 -0.025000 0.000000
0.700000 0.000000 0.000000
0.725000 -0.075000 0.000000
0.725000 -0.050000 0.000000
0.725000 -0.025000 0.000000
0.725000 0.000000 0.000000
0.750000 -0.075000 0.000000
0.750000 -0.050000 0.000000
0.750000 -0.025000 0.000000
0.750000 0.000000 0.000000
0.775000 -0.075000 0.000000
0.775000 -0.050000 0.000000
0.775000 -0.025000 0.000000
0.775000 0.000000 0.000000
0.800000 -0.075000 0.000000
0.800000 -0.050000 0.000000
0.800000 -0.025000 0.000000
0.800000 0.000000 0.000000
0.825000 -0.075000 0.000000
0.825000 -0.050000 0.000000
0.825000 -0.025000 0.000000
0.825000 0.000000 0.000000
0.850000 -0.075000 0.000000
0.850000 -0.050000 0.000000
0.850000 -0.025000 0.000000
0.850000 0.000000 0.000000
0.875000 -0.075000 0.000000
0.875000 -0.050000 0.000000
0.875000 -0.025000 0.000000
0.875000 0.000000 0.000000
0.900000 -0.075000 0.000000
0.900000 -0.050000 0.000000
0.900000 -0.025000 0.000000
0.900000 0.000000 0.000000
0.925000 -0.075000 0.000000
0.925000 -0.050000 0.000000
0.925000 -0.025000 0.000000
0.925000 0.000000 0.000000
0.950000 -0.075000 0.000000
0.950000 -0.050000 0.000000
0.950000 -0.025000 0.000000
0.950000 0.000000 0.000000
0.975000 -0.075000 0.000000
0.975000 -0.050000 0.000000
0.975000 -0.025000 0.000000
0.975000 0.000000 0.000000
1.000000 -0.075000 0.000000
1.000000 -0.050000 0.000000
1.000000 -0.025000 0.000000
1.000000 0.000000 0.000000
1.025000 -0.075000 0.000000
1.025000 -0.050000 0.000000
1.025000 -0.025000 0.000000
1.025000 0.000000 0.000000
1.025000 0.025000 0.000000
1.025000 0.050000 0.000000
1.025000 0.075000 0.000000
1.025000 0.100000 0.000000
1.025000 0.125000 0.000000
1.025000 0.150000 0.000000
1.025000 0.175000 0.000000
1.025000 0.200000 0.000000
1.025000 0.225000 0.000000
1.025000 0.250000 0.000000
1.025000 0.275000 0.000000
1.025000 0.300000 0.000000
1.025000 0.325000 0.000000
1.025000 0.350000 0.000000
1.025000 0.375000 0.000000
1.025000 0.400000 0.000000
1.025000 0.425000 0.000000
1.025000 0.450000 0.000000
1.025000 0.475000 0.000000
1.025000 0.500000 0.000000
1.025000 0.525000 0.000000
1.025000 0.550000 0.000000
1.025000 0.575000 0.000000
1.025000 0.600000 0.000000
1.050000 -0.075000 0.000000
1.050000 -0.050000 0.000000
1.050000 -0.025000 0.000000
1.050000 0.000000 0.000000
1.050000 0.025000 0.000000
1.050000 0.050000 0.000000
1.050000 0.075000 0.000000
1.050000 0.100000 0.000000
1.050000 0.125000 0.000000
1.050000 0.150000 0.000000
1.050000 0.175000 0.000000
1.050000 0.200000 0.000000
1.050000 0.225000 0.000000
1.050000 0.250000 0.000000
1.050000 0.275000 0.000000
1.050000 0.300000 0.000000
1.050000 0.325000 0.000000
1.050000 0.350000 0.000000
1.050000 0.375000 0.000000
1.050000 0.400000 0.000000
1.050000 0.425000 0.000000
1.050000 0.450000 0.000000
1.050000 0.475000 0.000000
1.050000 0.500000 0.000000
1.050000 0.525000 0.000000
1.050000 0.550000 0.000000
1.050000 0.575000 0.000000
1.050000 0.600000 0.000000
1.075000 -0.075000 0.000000
1.075000 -0.050000 0.000000
1.075000 -0.025000 0.000000
1.075000 0.000000 0.000000
1.075000 0.025000 0.000000
1.075000 0.050000 0.000000
1.075000 0.075000 0.000000
1.075000 0.100000 0.000000
1.075000 0.125000 0.000000
1.075000 0.150000 0.000000
1.075000 0.175000 0.000000
1.075000 0.200000 0.000000
1.075000 0.225000 0.000000
1.075000 0.250000 0.000000
1.075000 0.275000 0.000000
1.075000 0.300000 0.000000
1.075000 0.325000 0.000000
1.075000 0.350000 0.000000
1.075000 0.375000 0.000000
1.075000 0.400000 0.000000
1.075000 0.425000 0.000000
1.075000 0.450000 0.000000
1.075000 0.475000 0.000000
1.075000 0.500000 0.000000
1.075000 0.525000 0.000000
1.075000 0.550000 0.000000
1.075000 0.575000 0.000000
1.075000 0.600000 0.000000
1.100000 -0.075000 0.000000
1.100000 -0.050000 0.000000
1.100000 -0.025000 0.000000
1.100000 0.000000 0.000000
1.100000 0.025000 0.000000
1.100000 0.050000 0.000000
1.100000 0.075000 0.000000
1.100000 0.100000 0.000000
1.100000 0.125000 0.000000
1.100000 0.150000 0.000000
1.100000 0.175000 0.000000
1.100000 0.200000 0.000000
1.100000 0.225000 0.000000
1.100000 0.250000 0.000000
1.100000 0.275000 0.000000
1.100000 0.300000 0.000000
1.100000 0.325000 0.000000
1.100000 0.350000 0.000000
1.100000 0.375000 0.000000
1.100000 0.400000 0.000000
1.100000 0.425000 0.000000
1.100000 0.450000 0.000000
1.100000 0.475000 0.000000
1.100000 0.500000 0.000000
1.100000 0.525000 0.000000
1.100000 0.550000 0.000000
1.100000 0.575000 0.000000
1.100000 0.600000 0.000000
</DataArray>
</Points>
<PointData>
<DataArray NumberOfComponents='1' type='Int32' Name='ParticleType' format='ascii'>
3
3
3
3
3
3
3
3
3
3
3
3
3
3
3
3
3
3
3
3
3
3
3
3
3
3
2
2
3
3
3
3
3
3
3
3
3
3
3
3
3
3
3
3
3
3
3
3
3
3
3
3
3
3
2
2
3
3
2
2
2
2
2
2
2
2
2
2
2
2
2
2
2
2
2
2
2
2
2
2
2
2
2
2
3
3
2
2
2
2
2
2
2
2
2
2
2
2
2
2
2
2
2
2
2
2
2
2
2
2
2
2
3
3
2
2
0
0
0
0
0
0
0
0
0
0
0
0
0
0
0
0
0
0
0
0
3
3
2
2
0
0
0
0
0
0
0
0
0
0
0
0
0
0
0
0
0
0
0
0
3
3
2
2
0
0
0
0
0
0
0
0
0
0
0
0
0
0
0
0
0
0
0
0
3
3
2
2
0
0
0
0
0
0
0
0
0
0
0
0
0
0
0
0
0
0
0
0
3
3
2
2
0
0
0
0
0
0
0
0
0
0
0
0
0
0
0
0
0
0
0
0
3
3
2
2
0
0
0
0
0
0
0
0
0
0
0
0
0
0
0
0
0
0
0
0
3
3
2
2
0
0
0
0
0
0
0
0
0
0
0
0
0
0
0
0
0
0
0
0
3
3
2
2
0
0
0
0
0
0
0
0
0
0
0
0
0
0
0
0
0
0
0
0
3
3
2
2
0
0
0
0
0
0
0
0
0
0
0
0
0
0
0
0
0
0
0
0
3
3
2
2
0
0
0
0
0
0
0
0
0
0
0
0
0
0
0
0
0
0
0
0
3
3
2
2
3
3
2
2
3
3
2
2
3
3
2
2
3
3
2
2
3
3
2
2
3
3
2
2
3
3
2
2
3
3
2
2
3
3
2
2
3
3
2
2
3
3
2
2
3
3
2
2
3
3
2
2
3
3
2
2
3
3
2
2
3
3
2
2
3
3
2
2
3
3
2
2
3
3
2
2
3
3
2
2
3
3
2
2
3
3
2
2
3
3
2
2
3
3
2
2
3
3
2
2
3
3
2
2
3
3
2
2
3
3
2
2
3
3
2
2
3
3
2
2
2
2
2
2
2
2
2
2
2
2
2
2
2
2
2
2
2
2
2
2
2
2
2
2
3
3
2
2
2
2
2
2
2
2
2
2
2
2
2
2
2
2
2
2
2
2
2
2
2
2
2
2
3
3
3
3
3
3
3
3
3
3
3
3
3
3
3
3
3
3
3
3
3
3
3
3
3
3
2
2
3
3
3
3
3
3
3
3
3
3
3
3
3
3
3
3
3
3
3
3
3
3
3
3
3
3
2
2
</DataArray>
<DataArray NumberOfComponents='1' type='Float32' Name='Velocity' format='ascii'>
0.000000
0.000000
0.000000
0.000000
0.000000
0.000000
0.000000
0.000000
0.000000
0.000000
0.000000
0.000000
0.000000
0.000000
0.000000
0.000000
0.000000
0.000000
0.000000
0.000000
0.000000
0.000000
0.000000
0.000000
0.000000
0.000000
0.000000
0.000000
0.000000
0.000000
0.000000
0.000000
0.000000
0.000000
0.000000
0.000000
0.000000
0.000000
0.000000
0.000000
0.000000
0.000000
0.000000
0.000000
0.000000
0.000000
0.000000
0.000000
0.000000
0.000000
0.000000
0.000000
0.000000
0.000000
0.000000
0.000000
0.000000
0.000000
0.000000
0.000000
0.000000
0.000000
0.000000
0.000000
0.000000
0.000000
0.000000
0.000000
0.000000
0.000000
0.000000
0.000000
0.000000
0.000000
0.000000
0.000000
0.000000
0.000000
0.000000
0.000000
0.000000
0.000000
0.000000
0.000000
0.000000
0.000000
0.000000
0.000000
0.000000
0.000000
0.000000
0.000000
0.000000
0.000000
0.000000
0.000000
0.000000
0.000000
0.000000
0.000000
0.000000
0.000000
0.000000
0.000000
0.000000
0.000000
0.000000
0.000000
0.000000
0.000000
0.000000
0.000000
0.000000
0.000000
0.000000
0.000000
0.346712
0.115174
0.399230
0.264086
0.437121
0.133151
1.131202
0.759419
0.057289
0.170410
0.228031
0.151565
0.325952
0.089988
0.160945
0.272594
0.339867
0.198252
0.283601
0.303391
0.000000
0.000000
0.000000
0.000000
0.365413
0.622089
0.758403
0.683592
0.573736
0.889983
1.060021
1.021943
1.016002
0.389315
0.971852
0.291674
0.219166
1.002712
0.682793
0.569410
0.362507
0.451500
0.381954
0.410020
0.000000
0.000000
0.000000
0.000000
0.425145
0.354283
0.634619
0.699060
1.107576
1.119434
0.993217
0.825759
1.376260
1.368013
0.722814
0.614847
0.573835
0.780861
0.674513
0.705890
0.691342
0.618117
0.662655
0.286738
0.000000
0.000000
0.000000
0.000000
0.378571
0.805350
1.061435
1.847350
0.527769
1.300899
1.299815
1.299235
1.309612
1.402351
0.743585
0.342053
1.304371
1.347723
1.112193
0.816566
1.145749
1.248076
0.721434
0.864700
0.000000
0.000000
0.000000
0.000000
1.357614
1.499512
1.295791
0.962612
1.081756
0.487138
1.642515
1.807407
1.622175
1.300555
1.561494
1.696678
1.430380
1.308365
0.857113
1.167601
1.541749
1.128158
1.071548
0.817240
0.000000
0.000000
0.000000
0.000000
0.811269
0.755931
1.623020
2.014646
0.425316
1.683610
1.529630
0.904456
1.523000
1.389948
1.510076
1.564383
1.512189
1.311122
1.509190
1.421527
1.056788
1.384009
1.290850
1.132205
0.000000
0.000000
0.000000
0.000000
1.335477
0.370679
1.314197
0.887656
0.635948
1.653380
0.472099
1.214683
0.870561
0.669468
1.108776
1.372107
1.483635
1.716346
1.524188
1.557166
1.917798
1.763233
1.579048
1.701151
0.000000
0.000000
0.000000
0.000000
1.586426
1.517387
0.979783
2.201596
1.100809
1.272168
1.299860
1.830939
1.283994
1.038416
0.999591
0.706188
1.588664
0.833858
1.657427
1.952459
1.643295
1.943414
1.738933
1.590170
0.000000
0.000000
0.000000
0.000000
1.263317
2.584125
1.398798
0.602392
1.549116
0.779697
1.061922
1.139704
0.804501
1.084359
1.086600
0.863645
1.104298
0.596332
1.858197
1.552105
1.589978
1.121141
1.436990
1.536823
0.000000
0.000000
0.000000
0.000000
1.853324
1.921178
1.106806
1.185353
2.124023
1.278314
1.864806
1.567848
0.989042
1.034213
0.750567
0.694740
1.074959
1.037479
0.541839
0.530541
1.713921
0.700085
1.260267
1.378719
0.000000
0.000000
0.000000
0.000000
0.000000
0.000000
0.000000
0.000000
0.000000
0.000000
0.000000
0.000000
0.000000
0.000000
0.000000
0.000000
0.000000
0.000000
0.000000
0.000000
0.000000
0.000000
0.000000
0.000000
0.000000
0.000000
0.000000
0.000000
0.000000
0.000000
0.000000
0.000000
0.000000
0.000000
0.000000
0.000000
0.000000
0.000000
0.000000
0.000000
0.000000
0.000000
0.000000
0.000000
0.000000
0.000000
0.000000
0.000000
0.000000
0.000000
0.000000
0.000000
0.000000
0.000000
0.000000
0.000000
0.000000
0.000000
0.000000
0.000000
0.000000
0.000000
0.000000
0.000000
0.000000
0.000000
0.000000
0.000000
0.000000
0.000000
0.000000
0.000000
0.000000
0.000000
0.000000
0.000000
0.000000
0.000000
0.000000
0.000000
0.000000
0.000000
0.000000
0.000000
0.000000
0.000000
0.000000
0.000000
0.000000
0.000000
0.000000
0.000000
0.000000
0.000000
0.000000
0.000000
0.000000
0.000000
0.000000
0.000000
0.000000
0.000000
0.000000
0.000000
0.000000
0.000000
0.000000
0.000000
0.000000
0.000000
0.000000
0.000000
0.000000
0.000000
0.000000
0.000000
0.000000
0.000000
0.000000
0.000000
0.000000
0.000000
0.000000
0.000000
0.000000
0.000000
0.000000
0.000000
0.000000
0.000000
0.000000
0.000000
0.000000
0.000000
0.000000
0.000000
0.000000
0.000000
0.000000
0.000000
0.000000
0.000000
0.000000
0.000000
0.000000
0.000000
0.000000
0.000000
0.000000
0.000000
0.000000
0.000000
0.000000
0.000000
0.000000
0.000000
0.000000
0.000000
0.000000
0.000000
0.000000
0.000000
0.000000
0.000000
0.000000
0.000000
0.000000
0.000000
0.000000
0.000000
0.000000
0.000000
0.000000
0.000000
0.000000
0.000000
0.000000
0.000000
0.000000
0.000000
0.000000
0.000000
0.000000
0.000000
0.000000
0.000000
0.000000
0.000000
0.000000
0.000000
0.000000
0.000000
0.000000
0.000000
0.000000
0.000000
0.000000
0.000000
0.000000
0.000000
0.000000
0.000000
0.000000
0.000000
0.000000
0.000000
0.000000
0.000000
0.000000
0.000000
0.000000
0.000000
0.000000
0.000000
0.000000
0.000000
0.000000
0.000000
0.000000
0.000000
0.000000
0.000000
0.000000
0.000000
0.000000
0.000000
0.000000
0.000000
0.000000
0.000000
0.000000
0.000000
</DataArray>
<DataArray NumberOfComponents='1' type='Float32' Name='pressure' format='ascii'>
0.000000
0.000000
0.000000
0.000000
0.000000
0.000000
0.000000
0.000000
0.000000
0.000000
0.000000
0.000000
0.000000
0.000000
0.000000
0.000000
0.000000
0.000000
0.000000
0.000000
0.000000
0.000000
0.000000
0.000000
0.000000
0.000000
0.000000
0.000000
0.000000
0.000000
0.000000
0.000000
0.000000
0.000000
0.000000
0.000000
0.000000
0.000000
0.000000
0.000000
0.000000
0.000000
0.000000
0.000000
0.000000
0.000000
0.000000
0.000000
0.000000
0.000000
0.000000
0.000000
0.000000
0.000000
0.000000
0.000000
0.000000
0.000000
1869.790771
1899.743530
2790.801514
1719.887695
0.000000
277.888550
0.000000
0.000000
0.000000
0.000000
0.000000
0.000000
0.000000
0.000000
0.000000
0.000000
0.000000
0.000000
0.000000
0.000000
0.000000
0.000000
0.000000
0.000000
0.000000
0.000000
0.000000
0.000000
1914.773560
1073.509521
2562.387451
661.527832
0.000000
1629.156372
0.000000
0.000000
0.000000
0.000000
0.000000
0.000000
0.000000
0.000000
0.000000
0.000000
0.000000
0.000000
0.000000
0.000000
0.000000
0.000000
0.000000
0.000000
0.000000
0.000000
0.000000
0.000000
2701.934570
527.651672
749.720459
1490.358032
1258.421875
1608.541504
12.843770
1059.749268
0.000000
0.000000
0.000000
1201.827759
0.000000
731.111633
887.612793
2699.735596
1390.382935
613.946594
100.922241
748.924866
0.000000
0.000000
0.000000
0.000000
3782.023438
2472.567383
1358.844849
1171.230347
0.000000
320.186615
473.848297
0.000000
0.000000
374.434814
406.283478
1594.754761
61.724609
770.374451
1158.726807
0.000000
387.175140
0.000000
1011.138245
0.000000
0.000000
280.050171
0.000000
0.000000
2712.974365
1057.587402
644.569519
0.000000
0.000000
0.000000
1575.970825
0.000000
0.000000
518.563843
0.000000
0.000000
421.719360
0.000000
0.000000
0.000000
1212.180542
0.000000
0.000000
0.000000
0.000000
0.000000
0.000000
0.000000
2046.904663
109.511139
294.896942
2691.349121
927.772156
0.000000
1327.624756
0.000000
0.000000
0.000000
727.526062
169.772049
0.000000
12.757624
0.000000
0.000000
397.682556
0.000000
997.731995
0.000000
0.000000
0.000000
0.000000
0.000000
0.000000
0.000000
0.000000
0.000000
0.000000
2837.468994
145.026459
2638.726807
0.000000
1667.160156
0.000000
0.000000
0.000000
0.000000
0.000000
0.000000
0.000000
0.000000
0.000000
0.000000
0.000000
0.000000
0.000000
0.000000
0.000000
0.000000
1423.811157
2303.376953
0.000000
0.000000
2273.327148
0.000000
193.157791
1580.290283
1421.496216
0.000000
1381.237305
0.000000
2131.643555
3518.523193
267.710236
0.000000
0.000000
0.000000
861.614563
0.000000
0.000000
0.000000
612.917114
621.874878
0.000000
2703.446289
0.000000
3216.677002
4357.623535
0.000000
2897.297852
2441.092041
0.000000
2178.970459
623.306580
1091.578125
0.000000
0.000000
747.714905
1045.391602
928.913940
0.000000
0.000000
0.000000
0.000000
0.000000
954.974121
18.432314
0.000000
1282.623535
0.000000
0.000000
0.000000
0.000000
0.000000
1201.066895
0.000000
0.000000
0.000000
1378.345093
0.000000
1112.116333
0.000000
0.000000
0.000000
0.000000
0.000000
0.000000
0.000000
0.000000
749.739319
0.000000
0.000000
0.000000
1123.553467
0.000000
0.000000
0.000000
0.000000
0.000000
0.000000
0.000000
0.000000
0.000000
0.000000
0.000000
0.000000
0.000000
0.000000
562.501160
0.000000
0.000000
0.000000
0.000000
807.251831
696.868225
0.000000
0.000000
0.000000
0.000000
0.000000
0.000000
0.000000
0.000000
0.000000
0.000000
0.000000
0.000000
0.000000
0.000000
0.000000
0.000000
0.000000
446.781036
0.000000
0.000000
0.000000
0.000000
890.920654
1535.417480
0.000000
0.000000
0.000000
0.000000
0.000000
0.000000
270.373322
0.000000
0.000000
0.000000
87.580589
0.000000
0.000000
0.000000
343.506836
0.000000
0.000000
0.000000
583.399536
0.000000
0.000000
0.000000
910.017456
504.434418
0.000000
0.000000
1820.294067
1064.295288
0.000000
0.000000
76.329178
0.000000
0.000000
0.000000
2055.489014
0.000000
0.000000
0.000000
1267.132446
2098.086670
0.000000
0.000000
1026.152710
79.603859
0.000000
0.000000
227.548340
0.000000
0.000000
0.000000
1417.176758
0.000000
0.000000
0.000000
1715.359741
0.000000
0.000000
0.000000
2961.865723
1385.255859
0.000000
0.000000
1637.848145
0.000000
0.000000
0.000000
2572.903320
0.000000
0.000000
0.000000
2626.532959
0.000000
0.000000
0.000000
4374.367676
2905.549072
0.000000
0.000000
2702.527100
1573.263794
0.000000
0.000000
3606.194092
3180.396729
0.000000
0.000000
531.533081
0.000000
0.000000
0.000000
402.242493
0.000000
0.000000
0.000000
484.958130
1050.394287
0.000000
0.000000
722.723938
999.769104
0.000000
0.000000
0.000000
524.299622
0.000000
0.000000
168.631042
453.459595
0.000000
0.000000
1146.317993
857.834778
0.000000
0.000000
2596.934326
2487.012207
0.000000
0.000000
1427.507690
345.382843
0.000000
3242.588867
4110.203125
0.000000
0.000000
0.000000
0.000000
691.537537
0.000000
0.000000
0.000000
0.000000
0.000000
0.000000
0.000000
0.000000
0.000000
0.000000
0.000000
0.000000
0.000000
0.000000
0.000000
0.000000
0.000000
0.000000
1233.863525
1211.063721
867.931458
2534.155273
3474.394775
929.520020
2344.696289
736.776611
0.000000
637.125244
0.000000
0.000000
0.000000
0.000000
0.000000
0.000000
0.000000
0.000000
0.000000
0.000000
0.000000
0.000000
0.000000
0.000000
0.000000
0.000000
0.000000
0.000000
0.000000
0.000000
0.000000
0.000000
0.000000
0.000000
0.000000
0.000000
0.000000
0.000000
0.000000
0.000000
0.000000
0.000000
0.000000
0.000000
0.000000
0.000000
0.000000
0.000000
0.000000
0.000000
0.000000
0.000000
0.000000
0.000000
0.000000
0.000000
0.000000
0.000000
0.000000
0.000000
0.000000
0.000000
0.000000
0.000000
0.000000
0.000000
0.000000
0.000000
0.000000
0.000000
0.000000
0.000000
0.000000
0.000000
0.000000
0.000000
0.000000
0.000000
0.000000
0.000000
0.000000
0.000000
</DataArray>
</PointData>
<Cells>
<DataArray type='Int32' Name='connectivity' format='ascii'>
0
1
2
3
4
5
6
7
8
9
10
11
12
13
14
15
16
17
18
19
20
21
22
23
24
25
26
27
28
29
30
31
32
33
34
35
36
37
38
39
40
41
42
43
44
45
46
47
48
49
50
51
52
53
54
55
56
57
58
59
60
61
62
63
64
65
66
67
68
69
70
71
72
73
74
75
76
77
78
79
80
81
82
83
84
85
86
87
88
89
90
91
92
93
94
95
96
97
98
99
100
101
102
103
104
105
106
107
108
109
110
111
112
113
114
115
116
117
118
119
120
121
122
123
124
125
126
127
128
129
130
131
132
133
134
135
136
137
138
139
140
141
142
143
144
145
146
147
148
149
150
151
152
153
154
155
156
157
158
159
160
161
162
163
164
165
166
167
168
169
170
171
172
173
174
175
176
177
178
179
180
181
182
183
184
185
186
187
188
189
190
191
192
193
194
195
196
197
198
199
200
201
202
203
204
205
206
207
208
209
210
211
212
213
214
215
216
217
218
219
220
221
222
223
224
225
226
227
228
229
230
231
232
233
234
235
236
237
238
239
240
241
242
243
244
245
246
247
248
249
250
251
252
253
254
255
256
257
258
259
260
261
262
263
264
265
266
267
268
269
270
271
272
273
274
275
276
277
278
279
280
281
282
283
284
285
286
287
288
289
290
291
292
293
294
295
296
297
298
299
300
301
302
303
304
305
306
307
308
309
310
311
312
313
314
315
316
317
318
319
320
321
322
323
324
325
326
327
328
329
330
331
332
333
334
335
336
337
338
339