<?xml version='1.0' encoding='UTF-8'?>
<VTKFile xmlns='VTK' byte_order='LittleEndian' version='0.1' type='UnstructuredGrid'>
<UnstructuredGrid>
<Piece NumberOfCells='584' NumberOfPoints='584'>
<Points>
<DataArray NumberOfComponents='3' type='Float32' Name='Position' format='ascii'>
-0.075000 -0.075000 0.000000
-0.075000 -0.050000 0.000000
-0.075000 -0.025000 0.000000
-0.075000 0.000000 0.000000
-0.075000 0.025000 0.000000
-0.075000 0.050000 0.000000
-0.075000 0.075000 0.000000
-0.075000 0.100000 0.000000
-0.075000 0.125000 0.000000
-0.075000 0.150000 0.000000
-0.075000 0.175000 0.000000
-0.075000 0.200000 0.000000
-0.075000 0.225000 0.000000
-0.075000 0.250000 0.000000
-0.075000 0.275000 0.000000
-0.075000 0.300000 0.000000
-0.075000 0.325000 0.000000
-0.075000 0.350000 0.000000
-0.075000 0.375000 0.000000
-0.075000 0.400000 0.000000
-0.075000 0.425000 0.000000
-0.075000 0.450000 0.000000
-0.075000 0.475000 0.000000
-0.075000 0.500000 0.000000
-0.075000 0.525000 0.000000
-0.075000 0.550000 0.000000
-0.075000 0.575000 0.000000
-0.075000 0.600000 0.000000
-0.050000 -0.075000 0.000000
-0.050000 -0.050000 0.000000
-0.050000 -0.025000 0.000000
-0.050000 0.000000 0.000000
-0.050000 0.025000 0.000000
-0.050000 0.050000 0.000000
-0.050000 0.075000 0.000000
-0.050000 0.100000 0.000000
-0.050000 0.125000 0.000000
-0.050000 0.150000 0.000000
-0.050000 0.175000 0.000000
-0.050000 0.200000 0.000000
-0.050000 0.225000 0.000000
-0.050000 0.250000 0.000000
-0.050000 0.275000 0.000000
-0.050000 0.300000 0.000000
-0.050000 0.325000 0.000000
-0.050000 0.350000 0.000000
-0.050000 0.375000 0.000000
-0.050000 0.400000 0.000000
-0.050000 0.425000 0.000000
-0.050000 0.450000 0.000000
-0.050000 0.475000 0.000000
-0.050000 0.500000 0.000000
-0.050000 0.525000 0.000000
-0.050000 0.550000 0.000000
-0.050000 0.575000 0.000000
-0.050000 0.600000 0.000000
-0.025000 -0.075000 0.000000
-0.025000 -0.050000 0.000000
-0.025000 -0.025000 0.000000
-0.025000 0.000000 0.000000
-0.025000 0.025000 0.000000
-0.025000 0.050000 0.000000
-0.025000 0.075000 0.000000
-0.025000 0.100000 0.000000
-0.025000 0.125000 0.000000
-0.025000 0.150000 0.000000
-0.025000 0.175000 0.000000
-0.025000 0.200000 0.000000
-0.025000 0.225000 0.000000
-0.025000 0.250000 0.000000
-0.025000 0.275000 0.000000
-0.025000 0.300000 0.000000
-0.025000 0.325000 0.000000
-0.025000 0.350000 0.000000
-0.025000 0.375000 0.000000
-0.025000 0.400000 0.000000
-0.025000 0.425000 0.000000
-0.025000 0.450000 0.000000
-0.025000 0.475000 0.000000
-0.025000 0.500000 0.000000
-0.025000 0.525000 0.000000
-0.025000 0.550000 0.000000
-0.025000 0.575000 0.000000
-0.025000 0.600000 0.000000
0.000000 -0.075000 0.000000
0.000000 -0.050000 0.000000
0.000000 -0.025000 0.000000
0.000000 0.000000 0.000000
0.000000 0.025000 0.000000
0.000000 0.050000 0.000000
0.000000 0.075000 0.000000
0.000000 0.100000 0.000000
0.000000 0.125000 0.000000
0.000000 0.150000 0.000000
0.000000 0.175000 0.000000
0.000000 0.200000 0.000000
0.000000 0.225000 0.000000
0.000000 0.250000 0.000000
0.000000 0.275000 0.000000
0.000000 0.300000 0.000000
0.000000 0.325000 0.000000
0.000000 0.350000 0.000000
0.000000 0.375000 0.000000
0.000000 0.400000 0.000000
0.000000 0.425000 0.000000
0.000000 0.450000 0.000000
0.000000 0.475000 0.000000
0.000000 0.500000 0.000000
0.000000 0.525000 0.000000
0.000000 0.550000 0.000000
0.000000 0.575000 0.000000
0.000000 0.600000 0.000000
0.025000 -0.075000 0.000000
0.025000 -0.050000 0.000000
0.025000 -0.025000 0.000000
0.025000 0.000000 0.000000
0.170144 0.048965 0.000000
0.155753 0.165721 0.000000
0.158139 0.021663 0.000000
0.182944 0.027555 0.000000
0.212989 0.047663 0.000000
0.111482 0.108842 0.000000
0.285054 0.021965 0.000000
0.194823 0.061648 0.000000
0.166122 0.094517 0.000000
0.104183 0.238388 0.000000
0.206812 0.023638 0.000000
0.086680 0.152968 0.000000
0.128344 0.027131 0.000000
0.104156 0.023695 0.000000
0.131108 0.146363 0.000000
0.066275 0.050701 0.000000
0.044419 0.189420 0.000000
0.068319 0.022105 0.000000
0.021705 0.174880 0.000000
0.148798 0.046446 0.000000
0.050000 -0.075000 0.000000
0.050000 -0.050000 0.000000
0.050000 -0.025000 0.000000
0.050000 0.000000 0.000000
0.109898 0.221561 0.000000
0.060495 0.134179 0.000000
0.054426 0.206329 0.000000
0.024440 0.026169 0.000000
0.025093 0.133150 0.000000
0.423279 0.058230 0.000000
0.175254 0.132376 0.000000
0.560806 0.024406 0.000000
0.088446 0.177415 0.000000
0.187472 0.203852 0.000000
0.093497 0.100189 0.000000
0.208697 0.121002 0.000000
0.030980 0.251891 0.000000
0.148168 0.234117 0.000000
0.100567 0.065182 0.000000
0.023613 0.052154 0.000000
0.186763 0.108513 0.000000
0.223631 0.101214 0.000000
0.098661 0.255080 0.000000
0.079220 0.073323 0.000000
0.075000 -0.075000 0.000000
0.075000 -0.050000 0.000000
0.075000 -0.025000 0.000000
0.075000 0.000000 0.000000
0.105934 0.130206 0.000000
0.154224 0.113968 0.000000
0.370471 0.058976 0.000000
0.313280 0.023655 0.000000
0.374502 0.093100 0.000000
0.635148 0.049633 0.000000
0.620167 0.075206 0.000000
0.048025 0.119132 0.000000
0.299285 0.127490 0.000000
0.589587 0.070878 0.000000
0.404891 0.025374 0.000000
0.077379 0.118551 0.000000
0.201427 0.087513 0.000000
0.191787 0.141929 0.000000
0.241593 0.084728 0.000000
0.042102 0.091644 0.000000
0.133553 0.099318 0.000000
0.048715 0.061821 0.000000
0.142357 0.080352 0.000000
0.121375 0.047755 0.000000
0.100000 -0.075000 0.000000
0.100000 -0.050000 0.000000
0.100000 -0.025000 0.000000
0.100000 0.000000 0.000000
0.465507 0.025408 0.000000
0.263961 0.153925 0.000000
0.481705 0.047706 0.000000
0.781719 0.024235 0.000000
0.219535 0.073187 0.000000
0.704585 0.023628 0.000000
0.571960 0.091689 0.000000
0.240595 0.048414 0.000000
0.660738 0.022374 0.000000
0.662418 0.044329 0.000000
0.437919 0.020958 0.000000
0.290932 0.154622 0.000000
0.505672 0.054254 0.000000
0.608515 0.031738 0.000000
0.058738 0.227771 0.000000
0.233352 0.024894 0.000000
0.515259 0.028201 0.000000
0.258446 0.062366 0.000000
0.301885 0.092369 0.000000
0.162845 0.197549 0.000000
0.125000 -0.075000 0.000000
0.125000 -0.050000 0.000000
0.125000 -0.025000 0.000000
0.125000 0.000000 0.000000
0.689484 0.063338 0.000000
0.645536 0.064420 0.000000
0.984362 0.057878 0.000000
0.829428 0.024329 0.000000
0.532048 0.069852 0.000000
0.588531 0.024103 0.000000
0.137896 0.211932 0.000000
0.440280 0.044361 0.000000
0.751033 0.071265 0.000000
0.720508 0.061481 0.000000
0.844198 0.054388 0.000000
0.458455 0.054090 0.000000
0.490022 0.024544 0.000000
0.402888 0.140315 0.000000
0.383401 0.024355 0.000000
0.379018 0.128627 0.000000
0.233008 0.158821 0.000000
0.123068 0.071780 0.000000
0.413238 0.129751 0.000000
0.059210 0.159655 0.000000
0.150000 -0.075000 0.000000
0.150000 -0.050000 0.000000
0.150000 -0.025000 0.000000
0.150000 0.000000 0.000000
0.170614 0.177192 0.000000
0.964018 0.021722 0.000000
0.686557 0.087022 0.000000
0.274948 0.045945 0.000000
0.876599 0.022158 0.000000
0.172353 0.071563 0.000000
0.909552 0.044049 0.000000
0.412783 0.077670 0.000000
0.937904 0.050230 0.000000
0.487936 0.099558 0.000000
0.918605 0.077288 0.000000
0.684651 0.031641 0.000000
0.825170 0.071821 0.000000
0.803279 0.063568 0.000000
0.752220 0.032897 0.000000
0.606768 0.056380 0.000000
0.629738 0.023919 0.000000
0.628668 0.104316 0.000000
0.671887 0.077565 0.000000
0.222835 0.139644 0.000000
0.175000 -0.075000 0.000000
0.175000 -0.050000 0.000000
0.175000 -0.025000 0.000000
0.175000 0.000000 0.000000
0.109308 0.154264 0.000000
0.545817 0.097634 0.000000
0.886001 0.047962 0.000000
0.782165 0.083100 0.000000
0.993024 0.023340 0.000000
0.172490 0.214545 0.000000
0.851669 0.026645 0.000000
0.330172 0.041962 0.000000
0.363610 0.035989 0.000000
0.915222 0.021286 0.000000
0.470248 0.076363 0.000000
0.737104 0.070918 0.000000
0.344549 0.094732 0.000000
0.938341 0.029405 0.000000
0.973820 0.046858 0.000000
0.403424 0.048304 0.000000
1.001803 0.043884 0.000000
0.447427 0.091904 0.000000
0.117725 0.185876 0.000000
0.368042 0.114630 0.000000
0.200000 -0.075000 0.000000
0.200000 -0.050000 0.000000
0.200000 -0.025000 0.000000
0.200000 0.000000 0.000000
0.322426 0.099178 0.000000
0.089908 0.041935 0.000000
0.257303 0.101708 0.000000
0.800122 0.024020 0.000000
0.332038 0.063281 0.000000
0.249710 0.144558 0.000000
0.571687 0.043724 0.000000
0.945396 0.065046 0.000000
0.345256 0.117054 0.000000
0.033265 0.153274 0.000000
0.783567 0.063226 0.000000
0.681462 0.117472 0.000000
0.046827 0.027841 0.000000
0.430908 0.098716 0.000000
0.542892 0.052108 0.000000
0.121702 0.239091 0.000000
0.707963 0.047461 0.000000
0.330473 0.144145 0.000000
0.860923 0.052669 0.000000
0.698268 0.099369 0.000000
0.225000 -0.075000 0.000000
0.225000 -0.050000 0.000000
0.225000 -0.025000 0.000000
0.225000 0.000000 0.000000
0.279567 0.075068 0.000000
0.815703 0.049163 0.000000
0.527234 0.089550 0.000000
0.190266 0.256640 0.000000
0.026659 0.203836 0.000000
0.102992 0.193865 0.000000
0.411112 0.108015 0.000000
0.893321 0.062635 0.000000
0.562345 0.065728 0.000000
0.067673 0.179354 0.000000
0.581788 0.099503 0.000000
0.140527 0.374495 0.000000
0.345601 0.023472 0.000000
0.394899 0.072445 0.000000
0.070768 0.092751 0.000000
0.205773 0.191333 0.000000
0.500966 0.072290 0.000000
0.028714 0.075914 0.000000
0.244153 0.117873 0.000000
0.298966 0.046733 0.000000
0.250000 -0.075000 0.000000
0.250000 -0.050000 0.000000
0.250000 -0.025000 0.000000
0.250000 0.000000 0.000000
0.736173 0.020989 0.000000
0.302810 0.160795 0.000000
0.220041 0.181527 0.000000
0.280975 0.096957 0.000000
0.256748 0.027042 0.000000
0.322744 0.128151 0.000000
0.135079 0.169753 0.000000
0.249015 0.202197 0.000000
0.235828 0.198087 0.000000
0.465288 0.094881 0.000000
0.198985 0.161719 0.000000
0.040608 0.241516 0.000000
0.148244 0.134096 0.000000
0.534925 0.026268 0.000000
0.356370 0.070856 0.000000
0.309227 0.066546 0.000000
0.279145 0.126387 0.000000
0.758253 0.050846 0.000000
0.021860 0.106972 0.000000
0.494536 0.140098 0.000000
0.275000 -0.075000 0.000000
0.275000 -0.050000 0.000000
0.275000 -0.025000 0.000000
0.275000 0.000000 0.000000
0.300000 -0.075000 0.000000
0.300000 -0.050000 0.000000
0.300000 -0.025000 0.000000
0.300000 0.000000 0.000000
0.325000 -0.075000 0.000000
0.325000 -0.050000 0.000000
0.325000 -0.025000 0.000000
0.325000 0.000000 0.000000
0.350000 -0.075000 0.000000
0.350000 -0.050000 0.000000
0.350000 -0.025000 0.000000
0.350000 0.000000 0.000000
0.375000 -0.075000 0.000000
0.375000 -0.050000 0.000000
0.375000 -0.025000 0.000000
0.375000 0.000000 0.000000
0.400000 -0.075000 0.000000
0.400000 -0.050000 0.000000
0.400000 -0.025000 0.000000
0.400000 0.000000 0.000000
0.425000 -0.075000 0.000000
0.425000 -0.050000 0.000000
0.425000 -0.025000 0.000000
0.425000 0.000000 0.000000
0.450000 -0.075000 0.000000
0.450000 -0.050000 0.000000
0.450000 -0.025000 0.000000
0.450000 0.000000 0.000000
0.475000 -0.075000 0.000000
0.475000 -0.050000 0.000000
0.475000 -0.025000 0.000000
0.475000 0.000000 0.000000
0.500000 -0.075000 0.000000
0.500000 -0.050000 0.000000
0.500000 -0.025000 0.000000
0.500000 0.000000 0.000000
0.525000 -0.075000 0.000000
0.525000 -0.050000 0.000000
0.525000 -0.025000 0.000000
0.525000 0.000000 0.000000
0.550000 -0.075000 0.000000
0.550000 -0.050000 0.000000
0.550000 -0.025000 0.000000
0.550000 0.000000 0.000000
0.575000 -0.075000 0.000000
0.575000 -0.050000 0.000000
0.575000 -0.025000 0.000000
0.575000 0.000000 0.000000
0.600000 -0.075000 0.000000
0.600000 -0.050000 0.000000
0.600000 -0.025000 0.000000
0.600000 0.000000 0.000000
0.625000 -0.075000 0.000000
0.625000 -0.050000 0.000000
0.625000 -0.025000 0.000000
0.625000 0.000000 0.000000
0.650000 -0.075000 0.000000
0.650000 -0.050000 0.000000
0.650000 -0.025000 0.000000
0.650000 0.000000 0.000000
0.675000 -0.075000 0.000000
0.675000 -0.050000 0.000000
0.675000 -0.025000 0.000000
0.675000 0.000000 0.000000
0.700000 -0.075000 0.000000
0.700000 -0.050000 0.000000
0.700000 -0.025000 0.000000
0.700000 0.000000 0.000000
0.725000 -0.075000 0.000000
0.725000 -0.050000 0.000000
0.725000 -0.025000 0.000000
0.725000 0.000000 0.000000
0.750000 -0.075000 0.000000
0.750000 -0.050000 0.000000
0.750000 -0.025000 0.000000
0.750000 0.000000 0.000000
0.775000 -0.075000 0.000000
0.775000 -0.050000 0.000000
0.775000 -0.025000 0.000000
0.775000 0.000000 0.000000
0.800000 -0.075000 0.000000
0.800000 -0.050000 0.000000
0.800000 -0.025000 0.000000
0.800000 0.000000 0.000000
0.825000 -0.075000 0.000000
0.825000 -0.050000 0.000000
0.825000 -0.025000 0.000000
0.825000 0.000000 0.000000
0.850000 -0.075000 0.000000
0.850000 -0.050000 0.000000
0.850000 -0.025000 0.000000
0.850000 0.000000 0.000000
0.875000 -0.075000 0.000000
0.875000 -0.050000 0.000000
0.875000 -0.025000 0.000000
0.875000 0.000000 0.000000
0.900000 -0.075000 0.000000
0.900000 -0.050000 0.000000
0.900000 -0.025000 0.000000
0.900000 0.000000 0.000000
0.925000 -0.075000 0.000000
0.925000 -0.050000 0.000000
0.925000 -0.025000 0.000000
0.925000 0.000000 0.000000
0.950000 -0.075000 0.000000
0.950000 -0.050000 0.000000
0.950000 -0.025000 0.000000
0.950000 0.000000 0.000000
0.975000 -0.075000 0.000000
0.975000 -0.050000 0.000000
0.975000 -0.025000 0.000000
0.975000 0.000000 0.000000
1.000000 -0.075000 0.000000
1.000000 -0.050000 0.000000
1.000000 -0.025000 0.000000
1.000000 0.000000 0.000000
1.025000 -0.075000 0.000000
1.025000 -0.050000 0.000000
1.025000 -0.025000 0.000000
1.025000 0.000000 0.000000
1.025000 0.025000 0.000000
1.025000 0.050000 0.000000
1.025000 0.075000 0.000000
1.025000 0.100000 0.000000
1.025000 0.125000 0.000000
1.025000 0.150000 0.000000
1.025000 0.175000 0.000000
1.025000 0.200000 0.000000
1.025000 0.225000 0.000000
1.025000 0.250000 0.000000
1.025000 0.275000 0.000000
1.025000 0.300000 0.000000
1.025000 0.325000 0.000000
1.025000 0.350000 0.000000
1.025000 0.375000 0.000000
1.025000 0.400000 0.000000
1.025000 0.425000 0.000000
1.025000 0.450000 0.000000
1.025000 0.475000 0.000000
1.025000 0.500000 0.000000
1.025000 0.525000 0.000000
1.025000 0.550000 0.000000
1.025000 0.575000 0.000000
1.025000 0.600000 0.000000
1.050000 -0.075000 0.000000
1.050000 -0.050000 0.000000
1.050000 -0.025000 0.000000
1.050000 0.000000 0.000000
1.050000 0.025000 0.000000
1.050000 0.050000 0.000000
1.050000 0.075000 0.000000
1.050000 0.100000 0.000000
1.050000 0.125000 0.000000
1.050000 0.150000 0.000000
1.050000 0.175000 0.000000
1.050000 0.200000 0.000000
1.050000 0.225000 0.000000
1.050000 0.250000 0.000000
1.050000 0.275000 0.000000
1.050000 0.300000 0.000000
1.050000 0.325000 0.000000
1.050000 0.350000 0.000000
1.050000 0.375000 0.000000
1.050000 0.400000 0.000000
1.050000 0.425000 0.000000
1.050000 0.450000 0.000000
1.050000 0.475000 0.000000
1.050000 0.500000 0.000000
1.050000 0.525000 0.000000
1.050000 0.550000 0.000000
1.050000 0.575000 0.000000
1.050000 0.600000 0.000000
1.075000 -0.075000 0.000000
1.075000 -0.050000 0.000000
1.075000 -0.025000 0.000000
1.075000 0.000000 0.000000
1.075000 0.025000 0.000000
1.075000 0.050000 0.000000
1.075000 0.075000 0.000000
1.075000 0.100000 0.000000
1.075000 0.125000 0.000000
1.075000 0.150000 0.000000
1.075000 0.175000 0.000000
1.075000 0.200000 0.000000
1.075000 0.225000 0.000000
1.075000 0.250000 0.000000
1.075000 0.275000 0.000000
1.075000 0.300000 0.000000
1.075000 0.325000 0.000000
1.075000 0.350000 0.000000
1.075000 0.375000 0.000000
1.075000 0.400000 0.000000
1.075000 0.425000 0.000000
1.075000 0.450000 0.000000
1.075000 0.475000 0.000000
1.075000 0.500000 0.000000
1.075000 0.525000 0.000000
1.075000 0.550000 0.000000
1.075000 0.575000 0.000000
1.075000 0.600000 0.000000
1.100000 -0.075000 0.000000
1.100000 -0.050000 0.000000
1.100000 -0.025000 0.000000
1.100000 0.000000 0.000000
1.100000 0.025000 0.000000
1.100000 0.050000 0.000000
1.100000 0.075000 0.000000
1.100000 0.100000 0.000000
1.100000 0.125000 0.000000
1.100000 0.150000 0.000000
1.100000 0.175000 0.000000
1.100000 0.200000 0.000000
1.100000 0.225000 0.000000
1.100000 0.250000 0.000000
1.100000 0.275000 0.000000
1.100000 0.300000 0.000000
1.100000 0.325000 0.000000
1.100000 0.350000 0.000000
1.100000 0.375000 0.000000
1.100000 0.400000 0.000000
1.100000 0.425000 0.000000
1.100000 0.450000 0.000000
1.100000 0.475000 0.000000
1.100000 0.500000 0.000000
1.100000 0.525000 0.000000
1.100000 0.550000 0.000000
1.100000 0.575000 0.000000
1.100000 0.600000 0.000000
</DataArray>
</Points>
<PointData>
<DataArray NumberOfComponents='1' type='Int32' Name='ParticleType' format='ascii'>
3
3
3
3
3
3
3
3
3
3
3
3
3
3
3
3
3
3
3
3
3
3
3
3
3
3
2
2
3
3
3
3
3
3
3
3
3
3
3
3
3
3
3
3
3
3
3
3
3
3
3
3
3
3
2
2
3
3
2
2
2
2
2
2
2
2
2
2
2
2
2
2
2
2
2
2
2
2
2
2
2
2
2
2
3
3
2
2
2
2
2
2
2
2
2
2
2
2
2
2
2
2
2
2
2
2
2
2
2
2
2
2
3
3
2
2
0
0
0
0
0
0
0
0
0
0
0
0
0
0
0
0
0
0
0
0
3
3
2
2
0
0
0
0
0
0
0
0
0
0
0
0
0
0
0
0
0
0
0
0
3
3
2
2
0
0
0
0
0
0
0
0
0
0
0
0
0
0
0
0
0
0
0
0
3
3
2
2
0
0
0
0
0
0
0
0
0
0
0
0
0
0
0
0
0
0
0
0
3
3
2
2
0
0
0
0
0
0
0
0
0
0
0
0
0
0
0
0
0
0
0
0
3
3
2
2
0
0
0
0
0
0
0
0
0
0
0
0
0
0
0
0
0
0
0
0
3
3
2
2
0
0
0
0
0
0
0
0
0
0
0
0
0
0
0
0
0
0
0
0
3
3
2
2
0
0
0
0
0
0
0
0
0
0
0
0
0
0
0
0
0
0
0
0
3
3
2
2
0
0
0
0
0
0
0
0
0
0
0
0
0
0
0
0
0
0
0
0
3
3
2
2
0
0
0
0
0
0
0
0
0
0
0
0
0
0
0
0
0
0
0
0
3
3
2
2
3
3
2
2
3
3
2
2
3
3
2
2
3
3
2
2
3
3
2
2
3
3
2
2
3
3
2
2
3
3
2
2
3
3
2
2
3
3
2
2
3
3
2
2
3
3
2
2
3
3
2
2
3
3
2
2
3
3
2
2
3
3
2
2
3
3
2
2
3
3
2
2
3
3
2
2
3
3
2
2
3
3
2
2
3
3
2
2
3
3
2
2
3
3
2
2
3
3
2
2
3
3
2
2
3
3
2
2
3
3
2
2
3
3
2
2
3
3
2
2
2
2
2
2
2
2
2
2
2
2
2
2
2
2
2
2
2
2
2
2
2
2
2
2
3
3
2
2
2
2
2
2
2
2
2
2
2
2
2
2
2
2
2
2
2
2
2
2
2
2
2
2
3
3
3
3
3
3
3
3
3
3
3
3
3
3
3
3
3
3
3
3
3
3
3
3
3
3
2
2
3
3
3
3
3
3
3
3
3
3
3
3
3
3
3
3
3
3
3
3
3
3
3
3
3
3
2
2
</DataArray>
<DataArray NumberOfComponents='1' type='Float32' Name='Velocity' format='ascii'>
0.000000
0.000000
0.000000
0.000000
0.000000
0.000000
0.000000
0.000000
0.000000
0.000000
0.000000
0.000000
0.000000
0.000000
0.000000
0.000000
0.000000
0.000000
0.000000
0.000000
0.000000
0.000000
0.000000
0.000000
0.000000
0.000000
0.000000
0.000000
0.000000
0.000000
0.000000
0.000000
0.000000
0.000000
0.000000
0.000000
0.000000
0.000000
0.000000
0.000000
0.000000
0.000000
0.000000
0.000000
0.000000
0.000000
0.000000
0.000000
0.000000
0.000000
0.000000
0.000000
0.000000
0.000000
0.000000
0.000000
0.000000
0.000000
0.000000
0.000000
0.000000
0.000000
0.000000
0.000000
0.000000
0.000000
0.000000
0.000000
0.000000
0.000000
0.000000
0.000000
0.000000
0.000000
0.000000
0.000000
0.000000
0.000000
0.000000
0.000000
0.000000
0.000000
0.000000
0.000000
0.000000
0.000000
0.000000
0.000000
0.000000
0.000000
0.000000
0.000000
0.000000
0.000000
0.000000
0.000000
0.000000
0.000000
0.000000
0.000000
0.000000
0.000000
0.000000
0.000000
0.000000
0.000000
0.000000
0.000000
0.000000
0.000000
0.000000
0.000000
0.000000
0.000000
0.000000
0.000000
0.291465
0.437326
0.131302
0.142860
0.041470
0.471058
0.228573
0.358568
0.120649
1.065732
0.211620
0.446599
0.386979
0.178808
0.245444
0.098574
0.611053
0.278268
1.153709
0.776852
0.000000
0.000000
0.000000
0.000000
0.285525
0.110469
0.768712
0.107999
0.756069
0.255694
0.223379
0.289265
0.141803
0.211050
0.110163
0.142901
0.597836
0.410208
0.467646
0.420993
0.128111
0.270612
0.448714
0.491250
0.000000
0.000000
0.000000
0.000000
0.431296
0.175559
0.188551
0.083572
0.140728
0.627256
0.652781
0.191100
0.462082
0.751282
0.148879
0.368137
0.373951
0.145059
0.419137
0.401162
0.166170
0.265926
0.090683
0.403644
0.000000
0.000000
0.000000
0.000000
0.450808
0.190911
0.430252
0.273895
0.353552
0.317636
0.504741
0.124614
0.127156
0.109024
0.196843
0.103050
0.378817
0.191843
0.238913
0.229158
0.158059
0.118091
0.327089
0.370873
0.000000
0.000000
0.000000
0.000000
0.363589
0.310671
0.108945
0.114607
0.251060
0.224883
0.717249
0.289147
0.087306
0.041930
0.162556
0.371290
0.104627
0.759833
0.142527
0.482616
0.567707
0.434621
0.532488
0.579535
0.000000
0.000000
0.000000
0.000000
0.361437
0.049722
0.723885
0.149477
0.119461
0.213018
0.168772
0.216751
0.183092
0.223731
0.807853
0.219241
0.225556
0.151148
0.138920
0.358312
0.140867
0.318503
0.355169
0.695855
0.000000
0.000000
0.000000
0.000000
0.515831
1.196666
0.029365
0.370564
0.146718
0.835253
0.080730
0.256304
0.148019
0.101470
0.449830
0.194835
0.258458
0.265994
0.126388
0.055231
0.130264
0.388610
0.314257
0.521810
0.000000
0.000000
0.000000
0.000000
0.194745
0.205743
0.133172
0.276045
0.182218
0.413468
0.210100
0.365720
0.512144
0.579961
0.277102
0.354569
0.140317
0.431645
0.383109
1.356876
0.159301
0.187654
0.459152
0.406129
0.000000
0.000000
0.000000
0.000000
0.366775
0.179944
0.462430
0.587376
0.258546
0.610650
0.412252
0.176321
0.614604
0.183203
0.539478
0.977645
0.170782
0.089190
0.072340
0.528160
0.558316
0.341016
0.273126
0.092203
0.000000
0.000000
0.000000
0.000000
0.358956
0.410501
0.644101
0.076673
0.118734
0.724887
0.272324
0.275906
0.158801
0.120088
0.377854
0.635488
0.566546
0.181942
0.280235
0.303671
0.559440
0.181420
0.516960
0.200532
0.000000
0.000000
0.000000
0.000000
0.000000
0.000000
0.000000
0.000000
0.000000
0.000000
0.000000
0.000000
0.000000
0.000000
0.000000
0.000000
0.000000
0.000000
0.000000
0.000000
0.000000
0.000000
0.000000
0.000000
0.000000
0.000000
0.000000
0.000000
0.000000
0.000000
0.000000
0.000000
0.000000
0.000000
0.000000
0.000000
0.000000
0.000000
0.000000
0.000000
0.000000
0.000000
0.000000
0.000000
0.000000
0.000000
0.000000
0.000000
0.000000
0.000000
0.000000
0.000000
0.000000
0.000000
0.000000
0.000000
0.000000
0.000000
0.000000
0.000000
0.000000
0.000000
0.000000
0.000000
0.000000
0.000000
0.000000
0.000000
0.000000
0.000000
0.000000
0.000000
0.000000
0.000000
0.000000
0.000000
0.000000
0.000000
0.000000
0.000000
0.000000
0.000000
0.000000
0.000000
0.000000
0.000000
0.000000
0.000000
0.000000
0.000000
0.000000
0.000000
0.000000
0.000000
0.000000
0.000000
0.000000
0.000000
0.000000
0.000000
0.000000
0.000000
0.000000
0.000000
0.000000
0.000000
0.000000
0.000000
0.000000
0.000000
0.000000
0.000000
0.000000
0.000000
0.000000
0.000000
0.000000
0.000000
0.000000
0.000000
0.000000
0.000000
0.000000
0.000000
0.000000
0.000000
0.000000
0.000000
0.000000
0.000000
0.000000
0.000000
0.000000
0.000000
0.000000
0.000000
0.000000
0.000000
0.000000
0.000000
0.000000
0.000000
0.000000
0.000000
0.000000
0.000000
0.000000
0.000000
0.000000
0.000000
0.000000
0.000000
0.000000
0.000000
0.000000
0.000000
0.000000
0.000000
0.000000
0.000000
0.000000
0.000000
0.000000
0.000000
0.000000
0.000000
0.000000
0.000000
0.000000
0.000000
0.000000
0.000000
0.000000
0.000000
0.000000
0.000000
0.000000
0.000000
0.000000
0.000000
0.000000
0.000000
0.000000
0.000000
0.000000
0.000000
0.000000
0.000000
0.000000
0.000000
0.000000
0.000000
0.000000
0.000000
0.000000
0.000000
0.000000
0.000000
0.000000
0.000000
0.000000
0.000000
0.000000
0.000000
0.000000
0.000000
0.000000
0.000000
0.000000
0.000000
0.000000
0.000000
0.000000
0.000000
0.000000
0.000000
0.000000
0.000000
0.000000
0.000000
0.000000
0.000000
0.000000
0.000000
0.000000
0.000000
0.000000
0.000000
0.000000
0.000000
0.000000
0.000000
</DataArray>
<DataArray NumberOfComponents='1' type='Float32' Name='pressure' format='ascii'>
0.000000
0.000000
0.000000
0.000000
0.000000
0.000000
0.000000
0.000000
0.000000
0.000000
0.000000
0.000000
0.000000
0.000000
0.000000
0.000000
0.000000
0.000000
0.000000
0.000000
0.000000
0.000000
0.000000
0.000000
0.000000
0.000000
0.000000
0.000000
0.000000
0.000000
0.000000
0.000000
0.000000
0.000000
0.000000
0.000000
0.000000
0.000000
0.000000
0.000000
0.000000
0.000000
0.000000
0.000000
0.000000
0.000000
0.000000
0.000000
0.000000
0.000000
0.000000
0.000000
0.000000
0.000000
0.000000
0.000000
0.000000
0.000000
2761.416504
2873.802002
3071.641846
3005.471924
1394.020386
2743.343750
1917.720703
257.896820
1780.170654
0.000000
0.000000
0.000000
0.000000
0.000000
0.000000
0.000000
0.000000
0.000000
0.000000
0.000000
0.000000
0.000000
0.000000
0.000000
0.000000
0.000000
0.000000
0.000000
2680.796143
2591.370361
3831.802734
3072.200195
552.310608
2548.177002
1498.330811
0.000000
2353.595947
0.000000
0.000000
0.000000
0.000000
0.000000
0.000000
0.000000
0.000000
0.000000
0.000000
0.000000
0.000000
0.000000
0.000000
0.000000
0.000000
0.000000
0.000000
0.000000
2332.721191
2121.924561
3201.314941
5.073849
3040.564209
2332.492432
1903.239136
1859.927856
1327.360229
2380.296143
3237.500732
1794.062134
2536.970703
0.000000
3095.872314
1480.402832
3503.988037
2884.352783
2006.340576
2410.838379
0.000000
386.284729
0.000000
0.000000
2735.227295
3045.555664
0.000000
2021.975098
0.000000
3168.923584
1622.123047
1384.468140
1749.372437
1967.706909
1126.019653
0.000000
1813.420898
2505.908203
0.000000
0.000000
2282.291504
1898.882935
1857.427124
2161.500977
0.000000
2046.304199
0.000000
0.000000
3781.774170
3674.265137
0.000000
3550.857178
961.361755
1349.883301
0.000000
1515.238159
0.000000
1865.868652
186.150040
0.000000
455.169617
384.355713
1874.879150
1206.228516
1997.857910
1169.529419
1006.489380
2175.967285
2810.034424
3027.916016
0.000000
0.000000
3133.345947
2352.898193
1724.578735
0.000000
938.142334
0.000000
2125.661133
416.688171
303.229645
1284.236816
1039.101196
0.000000
1465.973022
0.000000
1364.473267
1761.833984
0.000000
2795.106689
1137.667236
1831.909058
1237.646729
1437.504761
0.000000
0.000000
2021.967651
1331.158447
339.581512
0.000000
0.000000
0.000000
842.104492
1236.151367
0.000000
1868.740967
0.000000
0.000000
0.000000
651.687500
1555.323486
0.000000
1066.319702
0.000000
0.000000
1444.619507
0.000000
812.210754
0.000000
0.000000
3856.916504
3177.677246
0.000000
125.632492
723.035522
2105.152832
0.000000
1529.562378
0.000000
649.264832
913.604980
0.000000
0.000000
128.588608
0.000000
0.000000
441.337250
0.000000
125.666191
0.000000
0.000000
2217.457520
0.000000
0.000000
3391.323486
3252.970703
3879.447266
0.000000
222.930389
0.000000
1830.115356
0.000000
247.478394
1606.050537
996.674988
457.513275
1242.609985
0.000000
1725.328491
154.916229
0.000000
1040.905518
0.000000
0.000000
557.055542
0.000000
0.000000
0.000000
3457.197510
3833.136719
330.445007
2786.634033
974.556152
0.000000
583.649414
430.665161
468.408051
0.000000
0.000000
0.000000
0.000000
0.000000
2788.737061
0.000000
1066.795044
0.000000
0.000000
0.000000
0.000000
0.000000
0.000000
0.000000
2776.428711
3188.038818
370.824310
723.842590
0.000000
0.000000
0.000000
0.000000
0.000000
0.000000
699.685181
1058.044922
0.000000
0.000000
1180.553711
0.000000
1675.639526
0.000000
0.000000
2911.204590
160.443237
1462.109985
0.000000
0.000000
1711.779907
1501.177979
0.000000
0.000000
0.000000
1836.594360
2150.916504
1628.523804
1999.670776
0.000000
0.000000
0.000000
0.000000
0.000000
2103.416992
1529.402100
656.250122
1080.863770
0.000000
244.838516
1322.301392
0.000000
0.000000
0.000000
3029.796387
2745.082031
0.000000
0.000000
3130.127197
1848.189941
0.000000
0.000000
2140.259277
1223.475830
0.000000
0.000000
2509.503418
2331.667236
0.000000
0.000000
2026.429932
2275.142578
0.000000
0.000000
2022.161255
1903.155029
0.000000
0.000000
2963.151367
1260.964111
0.000000
0.000000
3073.595215
3136.988770
0.000000
0.000000
1601.895874
2056.438721
0.000000
0.000000
947.817139
685.042908
0.000000
0.000000
138.111633
399.411438
0.000000
0.000000
715.924133
921.370667
0.000000
0.000000
1105.629517
1923.643188
0.000000
0.000000
915.953796
684.820618
0.000000
0.000000
1275.872192
658.550293
0.000000
0.000000
1510.031250
254.139603
0.000000
0.000000
1422.277588
913.964294
0.000000
0.000000
1802.047363
1726.100952
0.000000
0.000000
2242.443115
1539.926147
0.000000
0.000000
1747.435913
0.000000
0.000000
0.000000
1112.217651
391.613464
0.000000
0.000000
1327.429688
2683.784912
0.000000
0.000000
874.869080
747.098633
0.000000
0.000000
0.000000
366.937775
0.000000
0.000000
1301.189453
0.000000
0.000000
0.000000
925.054138
0.000000
0.000000
0.000000
1782.921631
1167.647339
0.000000
0.000000
1531.916626
193.723328
0.000000
0.000000
2022.377441
1616.750244
0.000000
0.000000
969.668579
33.406658
0.000000
0.000000
5.745298
0.000000
0.000000
0.000000
0.000000
0.000000
0.000000
0.000000
0.000000
0.000000
0.000000
0.000000
0.000000
0.000000
0.000000
0.000000
0.000000
0.000000
0.000000
0.000000
0.000000
0.000000
0.000000
0.000000
0.000000
0.000000
0.000000
0.000000
0.000000
0.000000
0.000000
0.000000
0.000000
0.000000
0.000000
0.000000
0.000000
0.000000
0.000000
0.000000
0.000000
0.000000
0.000000
0.000000
0.000000
0.000000
0.000000
0.000000
0.000000
0.000000
0.000000
0.000000
0.000000
0.000000
0.000000
0.000000
0.000000
0.000000
0.000000
0.000000
0.000000
0.000000
0.000000
0.000000
0.000000
0.000000
0.000000
0.000000
0.000000
0.000000
0.000000
0.000000
0.000000
0.000000
0.000000
0.000000
0.000000
0.000000
0.000000
0.000000
0.000000
0.000000
0.000000
0.000000
0.000000
0.000000
0.000000
0.000000
0.000000
0.000000
0.000000
0.000000
0.000000
0.000000
0.000000
0.000000
0.000000
0.000000
0.000000
0.000000
0.000000
0.000000
0.000000
0.000000
0.000000
0.000000
0.000000
0.000000
0.000000
0.000000
</DataArray>
</PointData>
<Cells>
<DataArray type='Int32' Name='connectivity' format='ascii'>
0
1
2
3
4
5
6
7
8
9
10
11
12
13
14
15
16
17
18
19
20
21
22
23
24
25
26
27
28
29
30
31
32
33
34
35
36
37
38
39
40
41
42
43
44
45
46
47
48
49
50
51
52
53
54
55
56
57
58
59
60
61
62
63
64
65
66
67
68
69
70
71
72
73
74
75
76
77
78
79
80
81
82
83
84
85
86
87
88
89
90
91
92
93
94
95
96
97
98
99
100
101
102
103
104
105
106
107
108
109
110
111
112
113
114
115
116
117
118
119
120
121
122
123
124
125
126
127
128
129
130
131
132
133
134
135
136
137
138
139
140
141
142
143
144
145
146
147
148
149
150
151
152
153
154
155
156
157
158
159
160
161
162
163
164
165
166
167
168
169
170
171
172
173
174
175
176
177
178
179
180
181
182
183
184
185
186
187
188
189
190
191
192
193
194
195
196
197
198
199
200
201
202
203
204
205
206
207
208
209
210
211
212
213
214
215
216
217
218
219
220
221
222
223
224
225
226
227
228
229
230
231
232
233
234
235
236
237
238
239
240
241
242
243
244
245
246
247
248
249
250
251
252
253
254
255
256
257
258
259
260
261
262
263
264
265
266
267
268
269
270
271
272
273
274
275
276
277
278
279
280
281
282
283
284
285
286
287
288
289
290
291