<?xml version='1.0' encoding='UTF-8'?>
<VTKFile xmlns='VTK' byte_order='LittleEndian' version='0.1' type='UnstructuredGrid'>
<UnstructuredGrid>
<Piece NumberOfCells='584' NumberOfPoints='584'>
<Points>
<DataArray NumberOfComponents='3' type='Float32' Name='Position' format='ascii'>
-0.075000 -0.075000 0.000000
-0.075000 -0.050000 0.000000
-0.075000 -0.025000 0.000000
-0.075000 0.000000 0.000000
-0.075000 0.025000 0.000000
-0.075000 0.050000 0.000000
-0.075000 0.075000 0.000000
-0.075000 0.100000 0.000000
-0.075000 0.125000 0.000000
-0.075000 0.150000 0.000000
-0.075000 0.175000 0.000000
-0.075000 0.200000 0.000000
-0.075000 0.225000 0.000000
-0.075000 0.250000 0.000000
-0.075000 0.275000 0.000000
-0.075000 0.300000 0.000000
-0.075000 0.325000 0.000000
-0.075000 0.350000 0.000000
-0.075000 0.375000 0.000000
-0.075000 0.400000 0.000000
-0.075000 0.425000 0.000000
-0.075000 0.450000 0.000000
-0.075000 0.475000 0.000000
-0.075000 0.500000 0.000000
-0.075000 0.525000 0.000000
-0.075000 0.550000 0.000000
-0.075000 0.575000 0.000000
-0.075000 0.600000 0.000000
-0.050000 -0.075000 0.000000
-0.050000 -0.050000 0.000000
-0.050000 -0.025000 0.000000
-0.050000 0.000000 0.000000
-0.050000 0.025000 0.000000
-0.050000 0.050000 0.000000
-0.050000 0.075000 0.000000
-0.050000 0.100000 0.000000
-0.050000 0.125000 0.000000
-0.050000 0.150000 0.000000
-0.050000 0.175000 0.000000
-0.050000 0.200000 0.000000
-0.050000 0.225000 0.000000
-0.050000 0.250000 0.000000
-0.050000 0.275000 0.000000
-0.050000 0.300000 0.000000
-0.050000 0.325000 0.000000
-0.050000 0.350000 0.000000
-0.050000 0.375000 0.000000
-0.050000 0.400000 0.000000
-0.050000 0.425000 0.000000
-0.050000 0.450000 0.000000
-0.050000 0.475000 0.000000
-0.050000 0.500000 0.000000
-0.050000 0.525000 0.000000
-0.050000 0.550000 0.000000
-0.050000 0.575000 0.000000
-0.050000 0.600000 0.000000
-0.025000 -0.075000 0.000000
-0.025000 -0.050000 0.000000
-0.025000 -0.025000 0.000000
-0.025000 0.000000 0.000000
-0.025000 0.025000 0.000000
-0.025000 0.050000 0.000000
-0.025000 0.075000 0.000000
-0.025000 0.100000 0.000000
-0.025000 0.125000 0.000000
-0.025000 0.150000 0.000000
-0.025000 0.175000 0.000000
-0.025000 0.200000 0.000000
-0.025000 0.225000 0.000000
-0.025000 0.250000 0.000000
-0.025000 0.275000 0.000000
-0.025000 0.300000 0.000000
-0.025000 0.325000 0.000000
-0.025000 0.350000 0.000000
-0.025000 0.375000 0.000000
-0.025000 0.400000 0.000000
-0.025000 0.425000 0.000000
-0.025000 0.450000 0.000000
-0.025000 0.475000 0.000000
-0.025000 0.500000 0.000000
-0.025000 0.525000 0.000000
-0.025000 0.550000 0.000000
-0.025000 0.575000 0.000000
-0.025000 0.600000 0.000000
0.000000 -0.075000 0.000000
0.000000 -0.050000 0.000000
0.000000 -0.025000 0.000000
0.000000 0.000000 0.000000
0.000000 0.025000 0.000000
0.000000 0.050000 0.000000
0.000000 0.075000 0.000000
0.000000 0.100000 0.000000
0.000000 0.125000 0.000000
0.000000 0.150000 0.000000
0.000000 0.175000 0.000000
0.000000 0.200000 0.000000
0.000000 0.225000 0.000000
0.000000 0.250000 0.000000
0.000000 0.275000 0.000000
0.000000 0.300000 0.000000
0.000000 0.325000 0.000000
0.000000 0.350000 0.000000
0.000000 0.375000 0.000000
0.000000 0.400000 0.000000
0.000000 0.425000 0.000000
0.000000 0.450000 0.000000
0.000000 0.475000 0.000000
0.000000 0.500000 0.000000
0.000000 0.525000 0.000000
0.000000 0.550000 0.000000
0.000000 0.575000 0.000000
0.000000 0.600000 0.000000
0.025000 -0.075000 0.000000
0.025000 -0.050000 0.000000
0.025000 -0.025000 0.000000
0.025000 0.000000 0.000000
0.206677 0.058298 0.000000
0.137034 0.154393 0.000000
0.188140 0.042532 0.000000
0.200300 0.026528 0.000000
0.224614 0.044451 0.000000
0.130108 0.082666 0.000000
0.308888 0.025175 0.000000
0.215383 0.080958 0.000000
0.174506 0.110978 0.000000
0.151759 0.224915 0.000000
0.229651 0.022587 0.000000
0.104236 0.114004 0.000000
0.166901 0.020564 0.000000
0.125430 0.022189 0.000000
0.138094 0.128170 0.000000
0.071814 0.047090 0.000000
0.019178 0.153282 0.000000
0.086807 0.024500 0.000000
0.030998 0.116640 0.000000
0.176862 0.065784 0.000000
0.050000 -0.075000 0.000000
0.050000 -0.050000 0.000000
0.050000 -0.025000 0.000000
0.050000 0.000000 0.000000
0.092972 0.184366 0.000000
0.081172 0.127098 0.000000
0.077160 0.172657 0.000000
0.025429 0.025077 0.000000
0.025394 0.098693 0.000000
0.420039 0.068002 0.000000
0.204566 0.132379 0.000000
0.565407 0.029455 0.000000
0.097819 0.149775 0.000000
0.208644 0.232782 0.000000
0.115369 0.067348 0.000000
0.226584 0.133318 0.000000
0.018206 0.204134 0.000000
0.200856 0.259212 0.000000
0.134154 0.043722 0.000000
0.047161 0.042446 0.000000
0.199318 0.108837 0.000000
0.248233 0.098441 0.000000
0.106359 0.224017 0.000000
0.092913 0.057317 0.000000
0.075000 -0.075000 0.000000
0.075000 -0.050000 0.000000
0.075000 -0.025000 0.000000
0.075000 0.000000 0.000000
0.123270 0.105215 0.000000
0.163457 0.131982 0.000000
0.391333 0.065901 0.000000
0.337569 0.023852 0.000000
0.392776 0.100219 0.000000
0.600336 0.084511 0.000000
0.576310 0.096320 0.000000
0.056801 0.108049 0.000000
0.290862 0.115779 0.000000
0.557775 0.059056 0.000000
0.420695 0.022846 0.000000
0.084873 0.101586 0.000000
0.224957 0.101989 0.000000
0.233366 0.160567 0.000000
0.265116 0.082783 0.000000
0.062096 0.086697 0.000000
0.152378 0.106842 0.000000
0.053452 0.067786 0.000000
0.161663 0.082194 0.000000
0.155450 0.038634 0.000000
0.100000 -0.075000 0.000000
0.100000 -0.050000 0.000000
0.100000 -0.025000 0.000000
0.100000 0.000000 0.000000
0.467432 0.027336 0.000000
0.300494 0.192719 0.000000
0.479861 0.080395 0.000000
0.778889 0.025015 0.000000
0.244473 0.068496 0.000000
0.709787 0.022320 0.000000
0.539182 0.082368 0.000000
0.253676 0.051771 0.000000
0.650009 0.025128 0.000000
0.655603 0.053317 0.000000
0.448624 0.029269 0.000000
0.293625 0.140421 0.000000
0.493480 0.064274 0.000000
0.611141 0.043219 0.000000
0.066619 0.199457 0.000000
0.254510 0.028207 0.000000
0.504779 0.039315 0.000000
0.281394 0.066579 0.000000
0.309636 0.102051 0.000000
0.135681 0.210362 0.000000
0.125000 -0.075000 0.000000
0.125000 -0.050000 0.000000
0.125000 -0.025000 0.000000
0.125000 0.000000 0.000000
0.679171 0.043270 0.000000
0.617432 0.061995 0.000000
0.982639 0.064764 0.000000
0.833462 0.028854 0.000000
0.511973 0.075574 0.000000
0.598867 0.023326 0.000000
0.111757 0.211204 0.000000
0.428952 0.043469 0.000000
0.767208 0.079320 0.000000
0.728213 0.060854 0.000000
0.830523 0.066271 0.000000
0.469300 0.053604 0.000000
0.493839 0.022124 0.000000
0.349003 0.144961 0.000000
0.387236 0.024393 0.000000
0.368800 0.126552 0.000000
0.212638 0.177276 0.000000
0.147712 0.065068 0.000000
0.384815 0.126635 0.000000
0.070393 0.151795 0.000000
0.150000 -0.075000 0.000000
0.150000 -0.050000 0.000000
0.150000 -0.025000 0.000000
0.150000 0.000000 0.000000
0.170962 0.185061 0.000000
0.964306 0.022551 0.000000
0.653223 0.073192 0.000000
0.288792 0.040670 0.000000
0.882944 0.026288 0.000000
0.194192 0.085629 0.000000
0.898354 0.056346 0.000000
0.429288 0.117087 0.000000
0.947435 0.067235 0.000000
0.460310 0.116372 0.000000
0.925621 0.031820 0.000000
0.679646 0.025310 0.000000
0.842578 0.076250 0.000000
0.803745 0.087865 0.000000
0.753925 0.023415 0.000000
0.584573 0.066938 0.000000
0.632270 0.024818 0.000000
0.612367 0.094835 0.000000
0.634805 0.080892 0.000000
0.255657 0.158587 0.000000
0.175000 -0.075000 0.000000
0.175000 -0.050000 0.000000
0.175000 -0.025000 0.000000
0.175000 0.000000 0.000000
0.116737 0.140937 0.000000
0.522688 0.095484 0.000000
0.871838 0.052028 0.000000
0.776693 0.062637 0.000000
1.001826 0.025048 0.000000
0.154511 0.186161 0.000000
0.860562 0.021504 0.000000
0.347740 0.050245 0.000000
0.375274 0.053607 0.000000
0.909553 0.025215 0.000000
0.457555 0.068730 0.000000
0.739644 0.067369 0.000000
0.331714 0.101253 0.000000
0.942639 0.029322 0.000000
0.978168 0.038341 0.000000
0.402060 0.040683 0.000000
0.998257 0.050545 0.000000
0.438246 0.080290 0.000000
0.118407 0.171901 0.000000
0.354589 0.110048 0.000000
0.200000 -0.075000 0.000000
0.200000 -0.050000 0.000000
0.200000 -0.025000 0.000000
0.200000 0.000000 0.000000
0.324118 0.129718 0.000000
0.104766 0.035195 0.000000
0.265416 0.113230 0.000000
0.804112 0.022899 0.000000
0.357352 0.069651 0.000000
0.282024 0.177991 0.000000
0.585728 0.040696 0.000000
0.974834 0.075626 0.000000
0.329087 0.147819 0.000000
0.054104 0.133341 0.000000
0.788458 0.050206 0.000000
0.652971 0.092662 0.000000
0.056564 0.021667 0.000000
0.431585 0.136506 0.000000
0.523766 0.032053 0.000000
0.184189 0.218114 0.000000
0.697338 0.063062 0.000000
0.337251 0.175943 0.000000
0.843533 0.045868 0.000000
0.687130 0.070778 0.000000
0.225000 -0.075000 0.000000
0.225000 -0.050000 0.000000
0.225000 -0.025000 0.000000
0.225000 0.000000 0.000000
0.310388 0.062274 0.000000
0.810617 0.045697 0.000000
0.512664 0.109608 0.000000
0.228437 0.253012 0.000000
0.039992 0.189017 0.000000
0.081007 0.220377 0.000000
0.402053 0.119238 0.000000
0.878896 0.066042 0.000000
0.539306 0.054393 0.000000
0.037601 0.148669 0.000000
0.558899 0.086575 0.000000
0.182916 0.277014 0.000000
0.362074 0.023701 0.000000
0.408376 0.086102 0.000000
0.092524 0.080818 0.000000
0.197787 0.176333 0.000000
0.489851 0.105505 0.000000
0.023034 0.053567 0.000000
0.244494 0.130082 0.000000
0.323199 0.044801 0.000000
0.250000 -0.075000 0.000000
0.250000 -0.050000 0.000000
0.250000 -0.025000 0.000000
0.250000 0.000000 0.000000
0.725674 0.031067 0.000000
0.313860 0.191309 0.000000
0.212422 0.204063 0.000000
0.293335 0.084857 0.000000
0.278009 0.023772 0.000000
0.308616 0.159849 0.000000
0.135290 0.180885 0.000000
0.258664 0.176416 0.000000
0.248832 0.197705 0.000000
0.445312 0.102157 0.000000
0.192504 0.152841 0.000000
0.050252 0.173197 0.000000
0.174227 0.148307 0.000000
0.544598 0.022710 0.000000
0.363427 0.088916 0.000000
0.326941 0.079319 0.000000
0.275975 0.137476 0.000000
0.747522 0.045682 0.000000
0.028932 0.074564 0.000000
0.482727 0.120129 0.000000
0.275000 -0.075000 0.000000
0.275000 -0.050000 0.000000
0.275000 -0.025000 0.000000
0.275000 0.000000 0.000000
0.300000 -0.075000 0.000000
0.300000 -0.050000 0.000000
0.300000 -0.025000 0.000000
0.300000 0.000000 0.000000
0.325000 -0.075000 0.000000
0.325000 -0.050000 0.000000
0.325000 -0.025000 0.000000
0.325000 0.000000 0.000000
0.350000 -0.075000 0.000000
0.350000 -0.050000 0.000000
0.350000 -0.025000 0.000000
0.350000 0.000000 0.000000
0.375000 -0.075000 0.000000
0.375000 -0.050000 0.000000
0.375000 -0.025000 0.000000
0.375000 0.000000 0.000000
0.400000 -0.075000 0.000000
0.400000 -0.050000 0.000000
0.400000 -0.025000 0.000000
0.400000 0.000000 0.000000
0.425000 -0.075000 0.000000
0.425000 -0.050000 0.000000
0.425000 -0.025000 0.000000
0.425000 0.000000 0.000000
0.450000 -0.075000 0.000000
0.450000 -0.050000 0.000000
0.450000 -0.025000 0.000000
0.450000 0.000000 0.000000
0.475000 -0.075000 0.000000
0.475000 -0.050000 0.000000
0.475000 -0.025000 0.000000
0.475000 0.000000 0.000000
0.500000 -0.075000 0.000000
0.500000 -0.050000 0.000000
0.500000 -0.025000 0.000000
0.500000 0.000000 0.000000
0.525000 -0.075000 0.000000
0.525000 -0.050000 0.000000
0.525000 -0.025000 0.000000
0.525000 0.000000 0.000000
0.550000 -0.075000 0.000000
0.550000 -0.050000 0.000000
0.550000 -0.025000 0.000000
0.550000 0.000000 0.000000
0.575000 -0.075000 0.000000
0.575000 -0.050000 0.000000
0.575000 -0.025000 0.000000
0.575000 0.000000 0.000000
0.600000 -0.075000 0.000000
0.600000 -0.050000 0.000000
0.600000 -0.025000 0.000000
0.600000 0.000000 0.000000
0.625000 -0.075000 0.000000
0.625000 -0.050000 0.000000
0.625000 -0.025000 0.000000
0.625000 0.000000 0.000000
0.650000 -0.075000 0.000000
0.650000 -0.050000 0.000000
0.650000 -0.025000 0.000000
0.650000 0.000000 0.000000
0.675000 -0.075000 0.000000
0.675000 -0.050000 0.000000
0.675000 -0.025000 0.000000
0.675000 0.000000 0.000000
0.700000 -0.075000 0.000000
0.700000 -0.050000 0.000000
0.700000 -0.025000 0.000000
0.700000 0.000000 0.000000
0.725000 -0.075000 0.000000
0.725000 -0.050000 0.000000
0.725000 -0.025000 0.000000
0.725000 0.000000 0.000000
0.750000 -0.075000 0.000000
0.750000 -0.050000 0.000000
0.750000 -0.025000 0.000000
0.750000 0.000000 0.000000
0.775000 -0.075000 0.000000
0.775000 -0.050000 0.000000
0.775000 -0.025000 0.000000
0.775000 0.000000 0.000000
0.800000 -0.075000 0.000000
0.800000 -0.050000 0.000000
0.800000 -0.025000 0.000000
0.800000 0.000000 0.000000
0.825000 -0.075000 0.000000
0.825000 -0.050000 0.000000
0.825000 -0.025000 0.000000
0.825000 0.000000 0.000000
0.850000 -0.075000 0.000000
0.850000 -0.050000 0.000000
0.850000 -0.025000 0.000000
0.850000 0.000000 0.000000
0.875000 -0.075000 0.000000
0.875000 -0.050000 0.000000
0.875000 -0.025000 0.000000
0.875000 0.000000 0.000000
0.900000 -0.075000 0.000000
0.900000 -0.050000 0.000000
0.900000 -0.025000 0.000000
0.900000 0.000000 0.000000
0.925000 -0.075000 0.000000
0.925000 -0.050000 0.000000
0.925000 -0.025000 0.000000
0.925000 0.000000 0.000000
0.950000 -0.075000 0.000000
0.950000 -0.050000 0.000000
0.950000 -0.025000 0.000000
0.950000 0.000000 0.000000
0.975000 -0.075000 0.000000
0.975000 -0.050000 0.000000
0.975000 -0.025000 0.000000
0.975000 0.000000 0.000000
1.000000 -0.075000 0.000000
1.000000 -0.050000 0.000000
1.000000 -0.025000 0.000000
1.000000 0.000000 0.000000
1.025000 -0.075000 0.000000
1.025000 -0.050000 0.000000
1.025000 -0.025000 0.000000
1.025000 0.000000 0.000000
1.025000 0.025000 0.000000
1.025000 0.050000 0.000000
1.025000 0.075000 0.000000
1.025000 0.100000 0.000000
1.025000 0.125000 0.000000
1.025000 0.150000 0.000000
1.025000 0.175000 0.000000
1.025000 0.200000 0.000000
1.025000 0.225000 0.000000
1.025000 0.250000 0.000000
1.025000 0.275000 0.000000
1.025000 0.300000 0.000000
1.025000 0.325000 0.000000
1.025000 0.350000 0.000000
1.025000 0.375000 0.000000
1.025000 0.400000 0.000000
1.025000 0.425000 0.000000
1.025000 0.450000 0.000000
1.025000 0.475000 0.000000
1.025000 0.500000 0.000000
1.025000 0.525000 0.000000
1.025000 0.550000 0.000000
1.025000 0.575000 0.000000
1.025000 0.600000 0.000000
1.050000 -0.075000 0.000000
1.050000 -0.050000 0.000000
1.050000 -0.025000 0.000000
1.050000 0.000000 0.000000
1.050000 0.025000 0.000000
1.050000 0.050000 0.000000
1.050000 0.075000 0.000000
1.050000 0.100000 0.000000
1.050000 0.125000 0.000000
1.050000 0.150000 0.000000
1.050000 0.175000 0.000000
1.050000 0.200000 0.000000
1.050000 0.225000 0.000000
1.050000 0.250000 0.000000
1.050000 0.275000 0.000000
1.050000 0.300000 0.000000
1.050000 0.325000 0.000000
1.050000 0.350000 0.000000
1.050000 0.375000 0.000000
1.050000 0.400000 0.000000
1.050000 0.425000 0.000000
1.050000 0.450000 0.000000
1.050000 0.475000 0.000000
1.050000 0.500000 0.000000
1.050000 0.525000 0.000000
1.050000 0.550000 0.000000
1.050000 0.575000 0.000000
1.050000 0.600000 0.000000
1.075000 -0.075000 0.000000
1.075000 -0.050000 0.000000
1.075000 -0.025000 0.000000
1.075000 0.000000 0.000000
1.075000 0.025000 0.000000
1.075000 0.050000 0.000000
1.075000 0.075000 0.000000
1.075000 0.100000 0.000000
1.075000 0.125000 0.000000
1.075000 0.150000 0.000000
1.075000 0.175000 0.000000
1.075000 0.200000 0.000000
1.075000 0.225000 0.000000
1.075000 0.250000 0.000000
1.075000 0.275000 0.000000
1.075000 0.300000 0.000000
1.075000 0.325000 0.000000
1.075000 0.350000 0.000000
1.075000 0.375000 0.000000
1.075000 0.400000 0.000000
1.075000 0.425000 0.000000
1.075000 0.450000 0.000000
1.075000 0.475000 0.000000
1.075000 0.500000 0.000000
1.075000 0.525000 0.000000
1.075000 0.550000 0.000000
1.075000 0.575000 0.000000
1.075000 0.600000 0.000000
1.100000 -0.075000 0.000000
1.100000 -0.050000 0.000000
1.100000 -0.025000 0.000000
1.100000 0.000000 0.000000
1.100000 0.025000 0.000000
1.100000 0.050000 0.000000
1.100000 0.075000 0.000000
1.100000 0.100000 0.000000
1.100000 0.125000 0.000000
1.100000 0.150000 0.000000
1.100000 0.175000 0.000000
1.100000 0.200000 0.000000
1.100000 0.225000 0.000000
1.100000 0.250000 0.000000
1.100000 0.275000 0.000000
1.100000 0.300000 0.000000
1.100000 0.325000 0.000000
1.100000 0.350000 0.000000
1.100000 0.375000 0.000000
1.100000 0.400000 0.000000
1.100000 0.425000 0.000000
1.100000 0.450000 0.000000
1.100000 0.475000 0.000000
1.100000 0.500000 0.000000
1.100000 0.525000 0.000000
1.100000 0.550000 0.000000
1.100000 0.575000 0.000000
1.100000 0.600000 0.000000
</DataArray>
</Points>
<PointData>
<DataArray NumberOfComponents='1' type='Int32' Name='ParticleType' format='ascii'>
3
3
3
3
3
3
3
3
3
3
3
3
3
3
3
3
3
3
3
3
3
3
3
3
3
3
2
2
3
3
3
3
3
3
3
3
3
3
3
3
3
3
3
3
3
3
3
3
3
3
3
3
3
3
2
2
3
3
2
2
2
2
2
2
2
2
2
2
2
2
2
2
2
2
2
2
2
2
2
2
2
2
2
2
3
3
2
2
2
2
2
2
2
2
2
2
2
2
2
2
2
2
2
2
2
2
2
2
2
2
2
2
3
3
2
2
0
0
0
0
0
0
0
0
0
0
0
0
0
0
0
0
0
0
0
0
3
3
2
2
0
0
0
0
0
0
0
0
0
0
0
0
0
0
0
0
0
0
0
0
3
3
2
2
0
0
0
0
0
0
0
0
0
0
0
0
0
0
0
0
0
0
0
0
3
3
2
2
0
0
0
0
0
0
0
0
0
0
0
0
0
0
0
0
0
0
0
0
3
3
2
2
0
0
0
0
0
0
0
0
0
0
0
0
0
0
0
0
0
0
0
0
3
3
2
2
0
0
0
0
0
0
0
0
0
0
0
0
0
0
0
0
0
0
0
0
3
3
2
2
0
0
0
0
0
0
0
0
0
0
0
0
0
0
0
0
0
0
0
0
3
3
2
2
0
0
0
0
0
0
0
0
0
0
0
0
0
0
0
0
0
0
0
0
3
3
2
2
0
0
0
0
0
0
0
0
0
0
0
0
0
0
0
0
0
0
0
0
3
3
2
2
0
0
0
0
0
0
0
0
0
0
0
0
0
0
0
0
0
0
0
0
3
3
2
2
3
3
2
2
3
3
2
2
3
3
2
2
3
3
2
2
3
3
2
2
3
3
2
2
3
3
2
2
3
3
2
2
3
3
2
2
3
3
2
2
3
3
2
2
3
3
2
2
3
3
2
2
3
3
2
2
3
3
2
2
3
3
2
2
3
3
2
2
3
3
2
2
3
3
2
2
3
3
2
2
3
3
2
2
3
3
2
2
3
3
2
2
3
3
2
2
3
3
2
2
3
3
2
2
3
3
2
2
3
3
2
2
3
3
2
2
3
3
2
2
2
2
2
2
2
2
2
2
2
2
2
2
2
2
2
2
2
2
2
2
2
2
2
2
3
3
2
2
2
2
2
2
2
2
2
2
2
2
2
2
2
2
2
2
2
2
2
2
2
2
2
2
3
3
3
3
3
3
3
3
3
3
3
3
3
3
3
3
3
3
3
3
3
3
3
3
3
3
2
2
3
3
3
3
3
3
3
3
3
3
3
3
3
3
3
3
3
3
3
3
3
3
3
3
3
3
2
2
</DataArray>
<DataArray NumberOfComponents='1' type='Float32' Name='Velocity' format='ascii'>
0.000000
0.000000
0.000000
0.000000
0.000000
0.000000
0.000000
0.000000
0.000000
0.000000
0.000000
0.000000
0.000000
0.000000
0.000000
0.000000
0.000000
0.000000
0.000000
0.000000
0.000000
0.000000
0.000000
0.000000
0.000000
0.000000
0.000000
0.000000
0.000000
0.000000
0.000000
0.000000
0.000000
0.000000
0.000000
0.000000
0.000000
0.000000
0.000000
0.000000
0.000000
0.000000
0.000000
0.000000
0.000000
0.000000
0.000000
0.000000
0.000000
0.000000
0.000000
0.000000
0.000000
0.000000
0.000000
0.000000
0.000000
0.000000
0.000000
0.000000
0.000000
0.000000
0.000000
0.000000
0.000000
0.000000
0.000000
0.000000
0.000000
0.000000
0.000000
0.000000
0.000000
0.000000
0.000000
0.000000
0.000000
0.000000
0.000000
0.000000
0.000000
0.000000
0.000000
0.000000
0.000000
0.000000
0.000000
0.000000
0.000000
0.000000
0.000000
0.000000
0.000000
0.000000
0.000000
0.000000
0.000000
0.000000
0.000000
0.000000
0.000000
0.000000
0.000000
0.000000
0.000000
0.000000
0.000000
0.000000
0.000000
0.000000
0.000000
0.000000
0.000000
0.000000
0.000000
0.000000
0.608499
0.140647
0.620340
0.489247
0.418137
0.543369
0.453165
0.458112
0.298894
0.694364
0.238434
0.572084
0.222362
0.387891
0.488615
0.196415
0.274057
0.215306
0.575560
0.347113
0.000000
0.000000
0.000000
0.000000
0.295540
0.841301
0.422091
0.193568
0.324733
0.070481
0.098219
0.151319
0.380647
0.446012
0.644755
0.565789
0.647406
0.713609
0.511111
0.188586
0.352871
0.546888
0.251040
0.165439
0.000000
0.000000
0.000000
0.000000
0.509748
0.199930
0.473202
0.329755
0.324922
0.700449
0.638292
0.168075
0.208109
0.250014
0.257104
0.134479
0.228010
0.382321
0.377772
0.288216
0.230017
0.196668
0.414883
0.640978
0.000000
0.000000
0.000000
0.000000
0.241401
0.783878
0.465881
0.237957
0.291466
0.198343
0.361499
0.536222
0.215303
0.113574
0.202737
0.393016
0.305477
0.207394
0.418999
0.477361
0.320764
0.197022
0.135214
0.258996
0.000000
0.000000
0.000000
0.000000
0.041675
0.463882
0.244117
0.102952
0.172623
0.138499
0.327941
0.124976
0.244689
0.203035
0.128411
0.402191
0.221271
0.423553
0.308139
0.163253
0.090999
0.474516
0.148009
0.469400
0.000000
0.000000
0.000000
0.000000
0.154773
0.150921
0.275312
0.414614
0.070222
0.246423
0.143232
0.599074
0.186948
0.336794
0.308617
0.113003
0.293652
0.189832
0.193402
0.391545
0.109245
0.193880
0.635851
0.449625
0.000000
0.000000
0.000000
0.000000
0.240404
0.159803
0.344365
0.122774
0.096706
0.209640
0.138946
0.253727
0.311202
0.154520
0.097544
0.234710
0.240361
0.129318
0.187331
0.141149
0.159562
0.189226
0.390817
0.318424
0.000000
0.000000
0.000000
0.000000
0.283112
0.274065
0.263400
0.254070
0.425189
0.796401
0.247131
0.196255
0.210140
0.689991
0.053476
0.543333
0.133441
0.750555
0.317983
0.317418
0.175149
0.783186
0.109554
0.304931
0.000000
0.000000
0.000000
0.000000
0.475026
0.117394
0.243524
0.642085
0.537152
0.229021
0.262156
0.170611
0.225523
0.262950
0.273685
1.690770
0.408474
0.320334
0.655492
0.636239
0.069369
0.378986
0.301287
0.367331
0.000000
0.000000
0.000000
0.000000
0.043425
0.369863
0.449368
0.439918
0.187479
0.497579
0.410078
0.255914
0.359865
0.308802
0.566047
0.911746
0.247086
0.077659
0.470104
0.433834
0.375744
0.184643
0.419298
0.183203
0.000000
0.000000
0.000000
0.000000
0.000000
0.000000
0.000000
0.000000
0.000000
0.000000
0.000000
0.000000
0.000000
0.000000
0.000000
0.000000
0.000000
0.000000
0.000000
0.000000
0.000000
0.000000
0.000000
0.000000
0.000000
0.000000
0.000000
0.000000
0.000000
0.000000
0.000000
0.000000
0.000000
0.000000
0.000000
0.000000
0.000000
0.000000
0.000000
0.000000
0.000000
0.000000
0.000000
0.000000
0.000000
0.000000
0.000000
0.000000
0.000000
0.000000
0.000000
0.000000
0.000000
0.000000
0.000000
0.000000
0.000000
0.000000
0.000000
0.000000
0.000000
0.000000
0.000000
0.000000
0.000000
0.000000
0.000000
0.000000
0.000000
0.000000
0.000000
0.000000
0.000000
0.000000
0.000000
0.000000
0.000000
0.000000
0.000000
0.000000
0.000000
0.000000
0.000000
0.000000
0.000000
0.000000
0.000000
0.000000
0.000000
0.000000
0.000000
0.000000
0.000000
0.000000
0.000000
0.000000
0.000000
0.000000
0.000000
0.000000
0.000000
0.000000
0.000000
0.000000
0.000000
0.000000
0.000000
0.000000
0.000000
0.000000
0.000000
0.000000
0.000000
0.000000
0.000000
0.000000
0.000000
0.000000
0.000000
0.000000
0.000000
0.000000
0.000000
0.000000
0.000000
0.000000
0.000000
0.000000
0.000000
0.000000
0.000000
0.000000
0.000000
0.000000
0.000000
0.000000
0.000000
0.000000
0.000000
0.000000
0.000000
0.000000
0.000000
0.000000
0.000000
0.000000
0.000000
0.000000
0.000000
0.000000
0.000000
0.000000
0.000000
0.000000
0.000000
0.000000
0.000000
0.000000
0.000000
0.000000
0.000000
0.000000
0.000000
0.000000
0.000000
0.000000
0.000000
0.000000
0.000000
0.000000
0.000000
0.000000
0.000000
0.000000
0.000000
0.000000
0.000000
0.000000
0.000000
0.000000
0.000000
0.000000
0.000000
0.000000
0.000000
0.000000
0.000000
0.000000
0.000000
0.000000
0.000000
0.000000
0.000000
0.000000
0.000000
0.000000
0.000000
0.000000
0.000000
0.000000
0.000000
0.000000
0.000000
0.000000
0.000000
0.000000
0.000000
0.000000
0.000000
0.000000
0.000000
0.000000
0.000000
0.000000
0.000000
0.000000
0.000000
0.000000
0.000000
0.000000
0.000000
0.000000
0.000000
0.000000
0.000000
0.000000
0.000000
0.000000
0.000000
0.000000
0.000000
0.000000
</DataArray>
<DataArray NumberOfComponents='1' type='Float32' Name='pressure' format='ascii'>
0.000000
0.000000
0.000000
0.000000
0.000000
0.000000
0.000000
0.000000
0.000000
0.000000
0.000000
0.000000
0.000000
0.000000
0.000000
0.000000
0.000000
0.000000
0.000000
0.000000
0.000000
0.000000
0.000000
0.000000
0.000000
0.000000
0.000000
0.000000
0.000000
0.000000
0.000000
0.000000
0.000000
0.000000
0.000000
0.000000
0.000000
0.000000
0.000000
0.000000
0.000000
0.000000
0.000000
0.000000
0.000000
0.000000
0.000000
0.000000
0.000000
0.000000
0.000000
0.000000
0.000000
0.000000
0.000000
0.000000
0.000000
0.000000
218.091599
136.833710
0.000000
588.579712
0.000000
0.000000
0.000000
3568.586426
2306.118408
4149.819336
1650.912231
0.000000
0.000000
0.000000
0.000000
0.000000
0.000000
0.000000
0.000000
0.000000
0.000000
0.000000
0.000000
0.000000
0.000000
0.000000
0.000000
0.000000
441.696716
121.953041
0.000000
1232.604858
0.000000
0.000000
0.000000
2620.132080
0.000000
1102.989868
0.000000
0.000000
0.000000
0.000000
0.000000
0.000000
0.000000
0.000000
0.000000
0.000000
0.000000
0.000000
0.000000
0.000000
0.000000
0.000000
0.000000
0.000000
906.354919
0.000000
931.491089
0.000000
1537.847900
0.000000
70.322914
1062.388916
0.000000
530.318665
176.777039
0.000000
2251.462402
904.094177
1068.085693
854.144531
488.572235
0.000000
988.453247
1586.202759
0.000000
0.000000
0.000000
0.000000
2417.809082
2699.075928
0.000000
0.000000
2280.388428
0.000000
686.653076
1132.247925
343.257141
0.000000
0.000000
0.000000
281.313599
2115.881836
0.000000
0.000000
1463.729492
1788.943726
812.103088
1164.741699
0.000000
953.289734
0.000000
0.000000
1904.564209
701.226379
455.071075
1219.003540
630.577026
1432.096680
1767.730469
65.276733
0.000000
1555.740845
0.000000
225.720886
1386.846802
1582.233276
1023.352234
0.000000
923.880127
1552.937256
1194.441772
262.116180
904.175476
382.399048
0.000000
0.000000
1064.891113
0.000000
848.228516
0.000000
417.953857
0.000000
59.952465
135.582428
0.000000
908.755432
537.650757
0.000000
962.544800
415.435333
984.050110
105.084793
0.000000
312.429626
0.000000
850.550110
1203.042969
0.000000
0.000000
0.000000
2531.364746
2027.356812
0.000000
11.866796
61.004620
0.000000
64.291313
361.769745
0.000000
423.131989
0.000000
0.000000
0.000000
501.878967
943.583496
0.000000
793.430542
0.000000
0.000000
1491.392578
0.000000
1632.191772
0.000000
0.000000
2126.618164
393.256439
0.000000
707.146301
793.312378
328.369202
0.000000
1381.993896
0.000000
0.000000
0.000000
0.000000
104.491852
0.000000
0.000000
0.000000
0.000000
0.000000
0.000000
0.000000
0.000000
519.948120
0.000000
0.000000
2774.247803
2060.806641
1664.163818
0.000000
0.000000
0.000000
754.737976
0.000000
78.240456
288.145569
496.080383
0.000000
694.875854
0.000000
132.591904
0.000000
0.000000
1365.680176
0.000000
0.000000
0.000000
512.363342
0.000000
0.000000
698.804871
0.000000
0.000000
2067.289307
951.601990
0.000000
1433.549316
0.000000
441.530853
0.000000
155.533325
1888.293579
0.000000
0.000000
1897.210449
0.000000
0.000000
0.000000
0.000000
0.000000
0.000000
0.000000
0.000000
0.000000
1780.302490
1796.011230
926.588623
0.000000
0.000000
0.000000
0.000000
0.000000
0.000000
0.000000
0.000000
1909.267212
0.000000
0.000000
788.677734
1143.997559
277.551056
1387.780029
330.302612
1618.781372
1466.954590
1730.092407
0.000000
0.000000
484.333405
31.904749
493.831726
0.000000
0.000000
440.778625
2042.880005
0.000000
859.589539
0.000000
0.000000
0.000000
1851.448486
0.000000
728.191162
1013.369141
0.000000
0.000000
806.519226
853.012085
1652.717529
0.000000
0.000000
0.000000
1350.051270
1883.571045
0.000000
0.000000
664.253723
169.570587
0.000000
0.000000
1103.069946
571.407898
0.000000
0.000000
2177.633789
2806.952637
0.000000
0.000000
1953.786499
1806.991821
0.000000
0.000000
1027.575928
708.755859
0.000000
0.000000
1340.566772
1527.583740
0.000000
0.000000
0.000000
0.000000
0.000000
0.000000
0.000000
0.000000
0.000000
0.000000
889.832825
1131.651855
0.000000
0.000000
0.000000
0.000000
0.000000
0.000000
473.521973
0.000000
0.000000
0.000000
0.000000
0.000000
0.000000
0.000000
634.576538
0.000000
0.000000
0.000000
190.635529
732.452759
0.000000
0.000000
297.429840
725.579041
0.000000
0.000000
224.609482
0.000000
0.000000
0.000000
1141.145996
890.149231
0.000000
0.000000
868.870178
175.895706
0.000000
0.000000
1341.524902
1505.693237
0.000000
0.000000
812.410828
1024.286987
0.000000
0.000000
1360.851196
1332.144409
0.000000
0.000000
1.141024
0.000000
0.000000
0.000000
1471.706543
989.991089
0.000000
0.000000
1218.622803
1278.667847
0.000000
0.000000
23.659939
0.000000
0.000000
0.000000
0.000000
984.887329
0.000000
0.000000
812.920593
1733.256592
0.000000
0.000000
1259.310059
503.415314
0.000000
0.000000
912.548157
1.895253
0.000000
0.000000
1123.731201
1679.745972
2175.353027
0.000000
0.000000
0.000000
0.000000
0.000000
0.000000
0.000000
0.000000
0.000000
0.000000
0.000000
0.000000
0.000000
0.000000
0.000000
0.000000
0.000000
0.000000
0.000000
0.000000
0.000000
0.000000
0.000000
0.000000
0.000000
1221.948853
1191.505859
1424.475952
0.000000
0.000000
0.000000
0.000000
0.000000
0.000000
0.000000
0.000000
0.000000
0.000000
0.000000
0.000000
0.000000
0.000000
0.000000
0.000000
0.000000
0.000000
0.000000
0.000000
0.000000
0.000000
0.000000
0.000000
0.000000
0.000000
0.000000
0.000000
0.000000
0.000000
0.000000
0.000000
0.000000
0.000000
0.000000
0.000000
0.000000
0.000000
0.000000
0.000000
0.000000
0.000000
0.000000
0.000000
0.000000
0.000000
0.000000
0.000000
0.000000
0.000000
0.000000
0.000000
0.000000
0.000000
0.000000
0.000000
0.000000
0.000000
0.000000
0.000000
0.000000
0.000000
0.000000
0.000000
0.000000
0.000000
0.000000
0.000000
0.000000
0.000000
0.000000
0.000000
0.000000
0.000000
0.000000
0.000000
0.000000
0.000000
0.000000
</DataArray>
</PointData>
<Cells>
<DataArray type='Int32' Name='connectivity' format='ascii'>
0
1
2
3
4
5
6
7
8
9
10
11
12
13
14
15
16
17
18
19
20
21
22
23
24
25
26
27
28
29
30
31
32
33
34
35
36
37
38
39
40
41
42
43
44
45
46
47
48
49
50
51
52
53
54
55
56
57
58
59
60
61
62
63
64
65
66
67
68
69
70
71
72
73
74
75
76
77
78
79
80
81
82
83
84
85
86
87
88
89
90
91
92
93
94
95
96
97
98
99
100
101
102
103
104
105
106
107
108
109
110
111
112
113
114
115
116
117
118
119
120
121
122
123
124
125
126
127
128
129
130
131
132
133
134
135
136
137
138
139
140
141
142
143
144
145
146
147
148
149
150
151
152
153
154
155
156
157
158
159
160
161
162
163
164
165
166
167
168
169
170
171
172
173
174
175
176
177
178
179
180
181
182
183
184
185
186
187
188
189
190
191
192
193
194
195
196
197
198
199
200
201
202
203
204
205
206
207
208
209
210
211
212
213
214
215
216
217
218
219
220
221
222
223
224
225
226
227
228
229
230
231
232
233
234
235
236
237
238
239
240
241
242
243
244
245
246
247
248
249
250
251
252
253
254
255
256
257
258
259
260
261
262
263
264
265
266
267
268
269
270
271
272
273
274
275
276
277
278
279
280
281
282
283
284
285
286
287
288
289
290
291
292
293
294
295
296
297
298
299
300
301
302
303
304
305
306
307
308
309
310
311
312
313
314
315
316
317
318
319
320
321
322
323
324
325