<?xml version='1.0' encoding='UTF-8'?>
<VTKFile xmlns='VTK' byte_order='LittleEndian' version='0.1' type='UnstructuredGrid'>
<UnstructuredGrid>
<Piece NumberOfCells='584' NumberOfPoints='584'>
<Points>
<DataArray NumberOfComponents='3' type='Float32' Name='Position' format='ascii'>
-0.075000 -0.075000 0.000000
-0.075000 -0.050000 0.000000
-0.075000 -0.025000 0.000000
-0.075000 0.000000 0.000000
-0.075000 0.025000 0.000000
-0.075000 0.050000 0.000000
-0.075000 0.075000 0.000000
-0.075000 0.100000 0.000000
-0.075000 0.125000 0.000000
-0.075000 0.150000 0.000000
-0.075000 0.175000 0.000000
-0.075000 0.200000 0.000000
-0.075000 0.225000 0.000000
-0.075000 0.250000 0.000000
-0.075000 0.275000 0.000000
-0.075000 0.300000 0.000000
-0.075000 0.325000 0.000000
-0.075000 0.350000 0.000000
-0.075000 0.375000 0.000000
-0.075000 0.400000 0.000000
-0.075000 0.425000 0.000000
-0.075000 0.450000 0.000000
-0.075000 0.475000 0.000000
-0.075000 0.500000 0.000000
-0.075000 0.525000 0.000000
-0.075000 0.550000 0.000000
-0.075000 0.575000 0.000000
-0.075000 0.600000 0.000000
-0.050000 -0.075000 0.000000
-0.050000 -0.050000 0.000000
-0.050000 -0.025000 0.000000
-0.050000 0.000000 0.000000
-0.050000 0.025000 0.000000
-0.050000 0.050000 0.000000
-0.050000 0.075000 0.000000
-0.050000 0.100000 0.000000
-0.050000 0.125000 0.000000
-0.050000 0.150000 0.000000
-0.050000 0.175000 0.000000
-0.050000 0.200000 0.000000
-0.050000 0.225000 0.000000
-0.050000 0.250000 0.000000
-0.050000 0.275000 0.000000
-0.050000 0.300000 0.000000
-0.050000 0.325000 0.000000
-0.050000 0.350000 0.000000
-0.050000 0.375000 0.000000
-0.050000 0.400000 0.000000
-0.050000 0.425000 0.000000
-0.050000 0.450000 0.000000
-0.050000 0.475000 0.000000
-0.050000 0.500000 0.000000
-0.050000 0.525000 0.000000
-0.050000 0.550000 0.000000
-0.050000 0.575000 0.000000
-0.050000 0.600000 0.000000
-0.025000 -0.075000 0.000000
-0.025000 -0.050000 0.000000
-0.025000 -0.025000 0.000000
-0.025000 0.000000 0.000000
-0.025000 0.025000 0.000000
-0.025000 0.050000 0.000000
-0.025000 0.075000 0.000000
-0.025000 0.100000 0.000000
-0.025000 0.125000 0.000000
-0.025000 0.150000 0.000000
-0.025000 0.175000 0.000000
-0.025000 0.200000 0.000000
-0.025000 0.225000 0.000000
-0.025000 0.250000 0.000000
-0.025000 0.275000 0.000000
-0.025000 0.300000 0.000000
-0.025000 0.325000 0.000000
-0.025000 0.350000 0.000000
-0.025000 0.375000 0.000000
-0.025000 0.400000 0.000000
-0.025000 0.425000 0.000000
-0.025000 0.450000 0.000000
-0.025000 0.475000 0.000000
-0.025000 0.500000 0.000000
-0.025000 0.525000 0.000000
-0.025000 0.550000 0.000000
-0.025000 0.575000 0.000000
-0.025000 0.600000 0.000000
0.000000 -0.075000 0.000000
0.000000 -0.050000 0.000000
0.000000 -0.025000 0.000000
0.000000 0.000000 0.000000
0.000000 0.025000 0.000000
0.000000 0.050000 0.000000
0.000000 0.075000 0.000000
0.000000 0.100000 0.000000
0.000000 0.125000 0.000000
0.000000 0.150000 0.000000
0.000000 0.175000 0.000000
0.000000 0.200000 0.000000
0.000000 0.225000 0.000000
0.000000 0.250000 0.000000
0.000000 0.275000 0.000000
0.000000 0.300000 0.000000
0.000000 0.325000 0.000000
0.000000 0.350000 0.000000
0.000000 0.375000 0.000000
0.000000 0.400000 0.000000
0.000000 0.425000 0.000000
0.000000 0.450000 0.000000
0.000000 0.475000 0.000000
0.000000 0.500000 0.000000
0.000000 0.525000 0.000000
0.000000 0.550000 0.000000
0.000000 0.575000 0.000000
0.000000 0.600000 0.000000
0.025000 -0.075000 0.000000
0.025000 -0.050000 0.000000
0.025000 -0.025000 0.000000
0.025000 0.000000 0.000000
0.282140 0.021549 0.000000
0.245588 0.024349 0.000000
0.238632 0.049677 0.000000
0.178001 0.026529 0.000000
0.365866 0.025315 0.000000
0.070100 0.024001 0.000000
0.460424 0.025754 0.000000
0.318101 0.021426 0.000000
0.213542 0.019376 0.000000
0.148353 0.058680 0.000000
0.279142 0.047588 0.000000
0.181996 0.051929 0.000000
0.150607 0.023153 0.000000
0.038530 0.022377 0.000000
0.021376 0.033619 0.000000
0.040650 0.053582 0.000000
0.097684 0.023923 0.000000
0.081583 0.050910 0.000000
0.082411 0.066299 0.000000
0.123009 0.026939 0.000000
0.050000 -0.075000 0.000000
0.050000 -0.050000 0.000000
0.050000 -0.025000 0.000000
0.050000 0.000000 0.000000
0.340016 0.028472 0.000000
0.607449 0.081764 0.000000
0.611375 0.061211 0.000000
0.564254 0.131933 0.000000
0.597145 0.103283 0.000000
0.662120 0.045932 0.000000
0.557269 0.043543 0.000000
0.765229 0.056074 0.000000
0.398183 0.023307 0.000000
0.393013 0.061659 0.000000
0.506963 0.122996 0.000000
0.471421 0.050562 0.000000
0.061257 0.045709 0.000000
0.441082 0.064051 0.000000
0.260943 0.044367 0.000000
0.293232 0.043775 0.000000
0.206050 0.043424 0.000000
0.318202 0.055191 0.000000
0.110591 0.044113 0.000000
0.148793 0.045028 0.000000
0.075000 -0.075000 0.000000
0.075000 -0.050000 0.000000
0.075000 -0.025000 0.000000
0.075000 0.000000 0.000000
0.369041 0.061127 0.000000
0.570699 0.065266 0.000000
0.575960 0.028041 0.000000
0.514940 0.027177 0.000000
0.844458 0.103534 0.000000
0.849071 0.022887 0.000000
0.853366 0.046819 0.000000
0.462570 0.149524 0.000000
0.812394 0.075162 0.000000
0.801653 0.039862 0.000000
0.662542 0.019061 0.000000
0.547169 0.022945 0.000000
0.394019 0.103356 0.000000
0.380246 0.037473 0.000000
0.419544 0.036011 0.000000
0.353374 0.071999 0.000000
0.334307 0.048928 0.000000
0.461507 0.085547 0.000000
0.443049 0.133387 0.000000
0.219786 0.050963 0.000000
0.100000 -0.075000 0.000000
0.100000 -0.050000 0.000000
0.100000 -0.025000 0.000000
0.100000 0.000000 0.000000
0.688836 0.034122 0.000000
0.614320 0.023158 0.000000
0.792429 0.077881 0.000000
0.926462 0.025540 0.000000
0.428393 0.059588 0.000000
0.902138 0.036875 0.000000
0.899184 0.084619 0.000000
0.805514 0.162576 0.000000
0.886788 0.021458 0.000000
0.874533 0.040576 0.000000
0.704708 0.026503 0.000000
0.681377 0.057907 0.000000
0.832026 0.062969 0.000000
0.811767 0.020938 0.000000
0.621178 0.083290 0.000000
0.433904 0.026324 0.000000
0.729638 0.024257 0.000000
0.826990 0.129535 0.000000
0.644731 0.040459 0.000000
0.543351 0.056196 0.000000
0.125000 -0.075000 0.000000
0.125000 -0.050000 0.000000
0.125000 -0.025000 0.000000
0.125000 0.000000 0.000000
0.916289 0.056486 0.000000
0.899896 0.107353 0.000000
1.000788 0.159873 0.000000
0.953410 0.023080 0.000000
0.953214 0.193690 0.000000
0.752683 0.032772 0.000000
0.757729 0.139545 0.000000
0.891399 0.147904 0.000000
0.919481 0.123890 0.000000
0.890811 0.127397 0.000000
0.949669 0.109247 0.000000
0.837068 0.197576 0.000000
0.728292 0.066127 0.000000
0.783507 0.050654 0.000000
0.652332 0.078625 0.000000
0.773480 0.020740 0.000000
0.850489 0.138992 0.000000
0.555216 0.078375 0.000000
0.765186 0.098705 0.000000
0.577098 0.118539 0.000000
0.150000 -0.075000 0.000000
0.150000 -0.050000 0.000000
0.150000 -0.025000 0.000000
0.150000 0.000000 0.000000
0.762167 0.116473 0.000000
1.001372 0.064602 0.000000
0.963451 0.319224 0.000000
0.710625 0.114031 0.000000
0.980036 0.072127 0.000000
0.639134 0.143227 0.000000
0.979929 0.125192 0.000000
0.801304 0.104621 0.000000
1.002047 0.123976 0.000000
0.953396 0.154977 0.000000
0.972147 0.041426 0.000000
0.881316 0.068301 0.000000
0.938630 0.043913 0.000000
0.960153 0.058497 0.000000
0.930985 0.095195 0.000000
0.861579 0.118048 0.000000
0.829876 0.041713 0.000000
0.873391 0.098401 0.000000
0.865333 0.075191 0.000000
0.705263 0.067548 0.000000
0.175000 -0.075000 0.000000
0.175000 -0.050000 0.000000
0.175000 -0.025000 0.000000
0.175000 0.000000 0.000000
0.445320 0.092899 0.000000
0.967511 0.172594 0.000000
0.980655 0.199435 0.000000
0.995103 0.180671 0.000000
0.982219 0.146722 0.000000
0.686304 0.148966 0.000000
0.988546 0.021283 0.000000
0.803854 0.196025 0.000000
0.691632 0.135767 0.000000
1.002140 0.038899 0.000000
0.879110 0.191003 0.000000
0.939239 0.174176 0.000000
0.817629 0.151015 0.000000
0.954509 0.130157 0.000000
0.977715 0.093551 0.000000
0.722144 0.125143 0.000000
1.001788 0.098368 0.000000
0.862272 0.154007 0.000000
0.809748 0.121595 0.000000
0.833902 0.174456 0.000000
0.200000 -0.075000 0.000000
0.200000 -0.050000 0.000000
0.200000 -0.025000 0.000000
0.200000 0.000000 0.000000
0.772959 0.434237 0.000000
0.656326 0.164891 0.000000
0.768251 0.212803 0.000000
0.957396 0.240267 0.000000
0.758298 0.190108 0.000000
0.862776 0.200604 0.000000
0.888110 0.237071 0.000000
1.000723 0.327861 0.000000
0.874201 0.169043 0.000000
0.630170 0.119200 0.000000
1.004133 0.208137 0.000000
0.954091 0.087498 0.000000
0.481379 0.157228 0.000000
0.732931 0.096269 0.000000
0.900937 0.180331 0.000000
0.710484 0.148219 0.000000
0.918512 0.192019 0.000000
0.778195 0.131292 0.000000
0.926112 0.141661 0.000000
0.924019 0.073573 0.000000
0.225000 -0.075000 0.000000
0.225000 -0.050000 0.000000
0.225000 -0.025000 0.000000
0.225000 0.000000 0.000000
0.821625 0.248091 0.000000
0.944844 1.182011 0.000000
0.919240 0.231413 0.000000
0.550536 0.114895 0.000000
0.478231 0.100226 0.000000
0.487820 0.168794 0.000000
0.864224 0.226641 0.000000
0.988491 0.231346 0.000000
0.931589 0.233475 0.000000
0.731284 0.165818 0.000000
0.971044 0.223343 0.000000
0.584705 0.135637 0.000000
0.623498 0.043016 0.000000
0.830322 0.089891 0.000000
0.664387 0.154337 0.000000
0.770332 0.164621 0.000000
0.766990 0.079917 0.000000
0.622557 0.133268 0.000000
0.648744 0.124159 0.000000
0.659521 0.089351 0.000000
0.250000 -0.075000 0.000000
0.250000 -0.050000 0.000000
0.250000 -0.025000 0.000000
0.250000 0.000000 0.000000
0.943574 0.784638 0.000000
0.741329 0.713551 0.000000
0.713868 0.086304 0.000000
0.802426 0.211312 0.000000
0.561522 0.856635 0.000000
0.855298 0.238542 0.000000
0.595882 0.645810 0.000000
0.692481 0.438789 0.000000
0.477559 0.028996 0.000000
0.894949 0.221310 0.000000
0.529076 0.110358 0.000000
0.564909 0.170501 0.000000
0.748229 0.154482 0.000000
0.733153 0.046851 0.000000
0.686067 0.084501 0.000000
0.794776 0.178948 0.000000
0.594109 0.029606 0.000000
0.915407 0.164522 0.000000
0.545719 0.153908 0.000000
0.946284 0.213962 0.000000
0.275000 -0.075000 0.000000
0.275000 -0.050000 0.000000
0.275000 -0.025000 0.000000
0.275000 0.000000 0.000000
0.300000 -0.075000 0.000000
0.300000 -0.050000 0.000000
0.300000 -0.025000 0.000000
0.300000 0.000000 0.000000
0.325000 -0.075000 0.000000
0.325000 -0.050000 0.000000
0.325000 -0.025000 0.000000
0.325000 0.000000 0.000000
0.350000 -0.075000 0.000000
0.350000 -0.050000 0.000000
0.350000 -0.025000 0.000000
0.350000 0.000000 0.000000
0.375000 -0.075000 0.000000
0.375000 -0.050000 0.000000
0.375000 -0.025000 0.000000
0.375000 0.000000 0.000000
0.400000 -0.075000 0.000000
0.400000 -0.050000 0.000000
0.400000 -0.025000 0.000000
0.400000 0.000000 0.000000
0.425000 -0.075000 0.000000
0.425000 -0.050000 0.000000
0.425000 -0.025000 0.000000
0.425000 0.000000 0.000000
0.450000 -0.075000 0.000000
0.450000 -0.050000 0.000000
0.450000 -0.025000 0.000000
0.450000 0.000000 0.000000
0.475000 -0.075000 0.000000
0.475000 -0.050000 0.000000
0.475000 -0.025000 0.000000
0.475000 0.000000 0.000000
0.500000 -0.075000 0.000000
0.500000 -0.050000 0.000000
0.500000 -0.025000 0.000000
0.500000 0.000000 0.000000
0.525000 -0.075000 0.000000
0.525000 -0.050000 0.000000
0.525000 -0.025000 0.000000
0.525000 0.000000 0.000000
0.550000 -0.075000 0.000000
0.550000 -0.050000 0.000000
0.550000 -0.025000 0.000000
0.550000 0.000000 0.000000
0.575000 -0.075000 0.000000
0.575000 -0.050000 0.000000
0.575000 -0.025000 0.000000
0.575000 0.000000 0.000000
0.600000 -0.075000 0.000000
0.600000 -0.050000 0.000000
0.600000 -0.025000 0.000000
0.600000 0.000000 0.000000
0.625000 -0.075000 0.000000
0.625000 -0.050000 0.000000
0.625000 -0.025000 0.000000
0.625000 0.000000 0.000000
0.650000 -0.075000 0.000000
0.650000 -0.050000 0.000000
0.650000 -0.025000 0.000000
0.650000 0.000000 0.000000
0.675000 -0.075000 0.000000
0.675000 -0.050000 0.000000
0.675000 -0.025000 0.000000
0.675000 0.000000 0.000000
0.700000 -0.075000 0.000000
0.700000 -0.050000 0.000000
0.700000 -0.025000 0.000000
0.700000 0.000000 0.000000
0.725000 -0.075000 0.000000
0.725000 -0.050000 0.000000
0.725000 -0.025000 0.000000
0.725000 0.000000 0.000000
0.750000 -0.075000 0.000000
0.750000 -0.050000 0.000000
0.750000 -0.025000 0.000000
0.750000 0.000000 0.000000
0.775000 -0.075000 0.000000
0.775000 -0.050000 0.000000
0.775000 -0.025000 0.000000
0.775000 0.000000 0.000000
0.800000 -0.075000 0.000000
0.800000 -0.050000 0.000000
0.800000 -0.025000 0.000000
0.800000 0.000000 0.000000
0.825000 -0.075000 0.000000
0.825000 -0.050000 0.000000
0.825000 -0.025000 0.000000
0.825000 0.000000 0.000000
0.850000 -0.075000 0.000000
0.850000 -0.050000 0.000000
0.850000 -0.025000 0.000000
0.850000 0.000000 0.000000
0.875000 -0.075000 0.000000
0.875000 -0.050000 0.000000
0.875000 -0.025000 0.000000
0.875000 0.000000 0.000000
0.900000 -0.075000 0.000000
0.900000 -0.050000 0.000000
0.900000 -0.025000 0.000000
0.900000 0.000000 0.000000
0.925000 -0.075000 0.000000
0.925000 -0.050000 0.000000
0.925000 -0.025000 0.000000
0.925000 0.000000 0.000000
0.950000 -0.075000 0.000000
0.950000 -0.050000 0.000000
0.950000 -0.025000 0.000000
0.950000 0.000000 0.000000
0.975000 -0.075000 0.000000
0.975000 -0.050000 0.000000
0.975000 -0.025000 0.000000
0.975000 0.000000 0.000000
1.000000 -0.075000 0.000000
1.000000 -0.050000 0.000000
1.000000 -0.025000 0.000000
1.000000 0.000000 0.000000
1.025000 -0.075000 0.000000
1.025000 -0.050000 0.000000
1.025000 -0.025000 0.000000
1.025000 0.000000 0.000000
1.025000 0.025000 0.000000
1.025000 0.050000 0.000000
1.025000 0.075000 0.000000
1.025000 0.100000 0.000000
1.025000 0.125000 0.000000
1.025000 0.150000 0.000000
1.025000 0.175000 0.000000
1.025000 0.200000 0.000000
1.025000 0.225000 0.000000
1.025000 0.250000 0.000000
1.025000 0.275000 0.000000
1.025000 0.300000 0.000000
1.025000 0.325000 0.000000
1.025000 0.350000 0.000000
1.025000 0.375000 0.000000
1.025000 0.400000 0.000000
1.025000 0.425000 0.000000
1.025000 0.450000 0.000000
1.025000 0.475000 0.000000
1.025000 0.500000 0.000000
1.025000 0.525000 0.000000
1.025000 0.550000 0.000000
1.025000 0.575000 0.000000
1.025000 0.600000 0.000000
1.050000 -0.075000 0.000000
1.050000 -0.050000 0.000000
1.050000 -0.025000 0.000000
1.050000 0.000000 0.000000
1.050000 0.025000 0.000000
1.050000 0.050000 0.000000
1.050000 0.075000 0.000000
1.050000 0.100000 0.000000
1.050000 0.125000 0.000000
1.050000 0.150000 0.000000
1.050000 0.175000 0.000000
1.050000 0.200000 0.000000
1.050000 0.225000 0.000000
1.050000 0.250000 0.000000
1.050000 0.275000 0.000000
1.050000 0.300000 0.000000
1.050000 0.325000 0.000000
1.050000 0.350000 0.000000
1.050000 0.375000 0.000000
1.050000 0.400000 0.000000
1.050000 0.425000 0.000000
1.050000 0.450000 0.000000
1.050000 0.475000 0.000000
1.050000 0.500000 0.000000
1.050000 0.525000 0.000000
1.050000 0.550000 0.000000
1.050000 0.575000 0.000000
1.050000 0.600000 0.000000
1.075000 -0.075000 0.000000
1.075000 -0.050000 0.000000
1.075000 -0.025000 0.000000
1.075000 0.000000 0.000000
1.075000 0.025000 0.000000
1.075000 0.050000 0.000000
1.075000 0.075000 0.000000
1.075000 0.100000 0.000000
1.075000 0.125000 0.000000
1.075000 0.150000 0.000000
1.075000 0.175000 0.000000
1.075000 0.200000 0.000000
1.075000 0.225000 0.000000
1.075000 0.250000 0.000000
1.075000 0.275000 0.000000
1.075000 0.300000 0.000000
1.075000 0.325000 0.000000
1.075000 0.350000 0.000000
1.075000 0.375000 0.000000
1.075000 0.400000 0.000000
1.075000 0.425000 0.000000
1.075000 0.450000 0.000000
1.075000 0.475000 0.000000
1.075000 0.500000 0.000000
1.075000 0.525000 0.000000
1.075000 0.550000 0.000000
1.075000 0.575000 0.000000
1.075000 0.600000 0.000000
1.100000 -0.075000 0.000000
1.100000 -0.050000 0.000000
1.100000 -0.025000 0.000000
1.100000 0.000000 0.000000
1.100000 0.025000 0.000000
1.100000 0.050000 0.000000
1.100000 0.075000 0.000000
1.100000 0.100000 0.000000
1.100000 0.125000 0.000000
1.100000 0.150000 0.000000
1.100000 0.175000 0.000000
1.100000 0.200000 0.000000
1.100000 0.225000 0.000000
1.100000 0.250000 0.000000
1.100000 0.275000 0.000000
1.100000 0.300000 0.000000
1.100000 0.325000 0.000000
1.100000 0.350000 0.000000
1.100000 0.375000 0.000000
1.100000 0.400000 0.000000
1.100000 0.425000 0.000000
1.100000 0.450000 0.000000
1.100000 0.475000 0.000000
1.100000 0.500000 0.000000
1.100000 0.525000 0.000000
1.100000 0.550000 0.000000
1.100000 0.575000 0.000000
1.100000 0.600000 0.000000
</DataArray>
</Points>
<PointData>
<DataArray NumberOfComponents='1' type='Int32' Name='ParticleType' format='ascii'>
3
3
3
3
3
3
3
3
3
3
3
3
3
3
3
3
3
3
3
3
3
3
3
3
3
3
2
2
3
3
3
3
3
3
3
3
3
3
3
3
3
3
3
3
3
3
3
3
3
3
3
3
3
3
2
2
3
3
2
2
2
2
2
2
2
2
2
2
2
2
2
2
2
2
2
2
2
2
2
2
2
2
2
2
3
3
2
2
2
2
2
2
2
2
2
2
2
2
2
2
2
2
2
2
2
2
2
2
2
2
2
2
3
3
2
2
0
0
0
0
0
0
0
0
0
0
0
0
0
0
0
0
0
0
0
0
3
3
2
2
0
0
0
0
0
0
0
0
0
0
0
0
0
0
0
0
0
0
0
0
3
3
2
2
0
0
0
0
0
0
0
0
0
0
0
0
0
0
0
0
0
0
0
0
3
3
2
2
0
0
0
0
0
0
0
0
0
0
0
0
0
0
0
0
0
0
0
0
3
3
2
2
0
0
0
0
0
0
0
0
0
0
0
0
0
0
0
0
0
0
0
0
3
3
2
2
0
0
0
0
0
0
0
0
0
0
0
0
0
0
0
0
0
0
0
0
3
3
2
2
0
0
0
0
0
0
0
0
0
0
0
0
0
0
0
0
0
0
0
0
3
3
2
2
0
0
0
0
0
0
0
0
0
0
0
0
0
0
0
0
0
0
0
0
3
3
2
2
0
0
0
0
0
0
0
0
0
0
0
0
0
0
0
0
0
0
0
0
3
3
2
2
0
0
0
0
0
0
0
0
0
0
0
0
0
0
0
0
0
0
0
0
3
3
2
2
3
3
2
2
3
3
2
2
3
3
2
2
3
3
2
2
3
3
2
2
3
3
2
2
3
3
2
2
3
3
2
2
3
3
2
2
3
3
2
2
3
3
2
2
3
3
2
2
3
3
2
2
3
3
2
2
3
3
2
2
3
3
2
2
3
3
2
2
3
3
2
2
3
3
2
2
3
3
2
2
3
3
2
2
3
3
2
2
3
3
2
2
3
3
2
2
3
3
2
2
3
3
2
2
3
3
2
2
3
3
2
2
3
3
2
2
3
3
2
2
2
2
2
2
2
2
2
2
2
2
2
2
2
2
2
2
2
2
2
2
2
2
2
2
3
3
2
2
2
2
2
2
2
2
2
2
2
2
2
2
2
2
2
2
2
2
2
2
2
2
2
2
3
3
3
3
3
3
3
3
3
3
3
3
3
3
3
3
3
3
3
3
3
3
3
3
3
3
2
2
3
3
3
3
3
3
3
3
3
3
3
3
3
3
3
3
3
3
3
3
3
3
3
3
3
3
2
2
</DataArray>
<DataArray NumberOfComponents='1' type='Float32' Name='Velocity' format='ascii'>
0.000000
0.000000
0.000000
0.000000
0.000000
0.000000
0.000000
0.000000
0.000000
0.000000
0.000000
0.000000
0.000000
0.000000
0.000000
0.000000
0.000000
0.000000
0.000000
0.000000
0.000000
0.000000
0.000000
0.000000
0.000000
0.000000
0.000000
0.000000
0.000000
0.000000
0.000000
0.000000
0.000000
0.000000
0.000000
0.000000
0.000000
0.000000
0.000000
0.000000
0.000000
0.000000
0.000000
0.000000
0.000000
0.000000
0.000000
0.000000
0.000000
0.000000
0.000000
0.000000
0.000000
0.000000
0.000000
0.000000
0.000000
0.000000
0.000000
0.000000
0.000000
0.000000
0.000000
0.000000
0.000000
0.000000
0.000000
0.000000
0.000000
0.000000
0.000000
0.000000
0.000000
0.000000
0.000000
0.000000
0.000000
0.000000
0.000000
0.000000
0.000000
0.000000
0.000000
0.000000
0.000000
0.000000
0.000000
0.000000
0.000000
0.000000
0.000000
0.000000
0.000000
0.000000
0.000000
0.000000
0.000000
0.000000
0.000000
0.000000
0.000000
0.000000
0.000000
0.000000
0.000000
0.000000
0.000000
0.000000
0.000000
0.000000
0.000000
0.000000
0.000000
0.000000
0.000000
0.000000
0.104492
0.209877
0.412803
0.116812
0.019923
0.148785
0.292810
0.282660
0.189975
0.029031
0.475894
0.106897
0.157764
0.180128
0.131405
0.196461
0.201176
0.141003
0.089125
0.108928
0.000000
0.000000
0.000000
0.000000
0.251725
0.322118
1.813778
2.026659
2.005203
0.664415
0.775517
0.243580
0.144534
0.166919
1.280383
0.367047
0.223312
0.499375
0.170759
0.365994
0.197603
0.407836
0.262003
0.230326
0.000000
0.000000
0.000000
0.000000
0.489196
0.693127
0.319871
0.482353
0.225428
0.184088
0.547119
2.707101
0.392762
0.659250
0.384442
0.537664
0.481424
0.500778
0.566885
0.318501
0.524524
0.687709
0.372381
0.250338
0.000000
0.000000
0.000000
0.000000
0.623132
0.168687
0.855035
0.298681
0.289605
0.259116
0.406154
1.366552
0.448642
0.550733
0.425923
0.713558
0.505099
0.280120
0.777652
0.124964
0.243226
1.049247
0.173426
0.601946
0.000000
0.000000
0.000000
0.000000
0.294451
0.366865
0.294431
0.248975
0.354173
0.454396
1.419502
0.383516
0.835266
0.380614
0.310188
0.608683
0.540395
0.380272
0.568686
0.416738
0.833316
1.028766
0.547585
1.989582
0.000000
0.000000
0.000000
0.000000
0.818678
0.267429
0.312257
1.700762
0.079352
1.756429
0.146104
0.370670
0.313607
0.266757
0.343930
0.532453
0.167772
0.175967
0.731486
0.301480
0.202361
0.467998
0.479980
0.666685
0.000000
0.000000
0.000000
0.000000
1.130213
0.493634
0.423935
0.392855
0.162419
2.016298
0.077829
1.342395
2.004894
0.116206
1.101246
0.167886
1.176257
0.238559
0.336798
1.777381
0.395247
1.174042
0.789206
1.033633
0.000000
0.000000
0.000000
0.000000
2.590060
2.369726
1.609559
0.196999
1.915409
1.011575
0.975808
0.417004
0.718422
1.972732
0.499403
0.289315
2.583783
0.193356
0.526917
1.955600
0.700086
0.357202
0.310098
0.587011
0.000000
0.000000
0.000000
0.000000
1.766088
1.534232
0.686560
1.263555
0.509072
2.640043
1.165274
0.860414
0.602370
1.627077
0.750706
2.784466
0.047907
0.416826
2.831671
0.981600
0.484577
2.068420
1.051868
1.106821
0.000000
0.000000
0.000000
0.000000
2.268018
2.266841
0.846164
1.223959
2.213221
1.266796
2.424983
2.682305
0.406249
0.609797
0.976426
2.686174
1.629245
0.691940
1.663545
1.385619
0.586600
0.766426
2.391328
0.571985
0.000000
0.000000
0.000000
0.000000
0.000000
0.000000
0.000000
0.000000
0.000000
0.000000
0.000000
0.000000
0.000000
0.000000
0.000000
0.000000
0.000000
0.000000
0.000000
0.000000
0.000000
0.000000
0.000000
0.000000
0.000000
0.000000
0.000000
0.000000
0.000000
0.000000
0.000000
0.000000
0.000000
0.000000
0.000000
0.000000
0.000000
0.000000
0.000000
0.000000
0.000000
0.000000
0.000000
0.000000
0.000000
0.000000
0.000000
0.000000
0.000000
0.000000
0.000000
0.000000
0.000000
0.000000
0.000000
0.000000
0.000000
0.000000
0.000000
0.000000
0.000000
0.000000
0.000000
0.000000
0.000000
0.000000
0.000000
0.000000
0.000000
0.000000
0.000000
0.000000
0.000000
0.000000
0.000000
0.000000
0.000000
0.000000
0.000000
0.000000
0.000000
0.000000
0.000000
0.000000
0.000000
0.000000
0.000000
0.000000
0.000000
0.000000
0.000000
0.000000
0.000000
0.000000
0.000000
0.000000
0.000000
0.000000
0.000000
0.000000
0.000000
0.000000
0.000000
0.000000
0.000000
0.000000
0.000000
0.000000
0.000000
0.000000
0.000000
0.000000
0.000000
0.000000
0.000000
0.000000
0.000000
0.000000
0.000000
0.000000
0.000000
0.000000
0.000000
0.000000
0.000000
0.000000
0.000000
0.000000
0.000000
0.000000
0.000000
0.000000
0.000000
0.000000
0.000000
0.000000
0.000000
0.000000
0.000000
0.000000
0.000000
0.000000
0.000000
0.000000
0.000000
0.000000
0.000000
0.000000
0.000000
0.000000
0.000000
0.000000
0.000000
0.000000
0.000000
0.000000
0.000000
0.000000
0.000000
0.000000
0.000000
0.000000
0.000000
0.000000
0.000000
0.000000
0.000000
0.000000
0.000000
0.000000
0.000000
0.000000
0.000000
0.000000
0.000000
0.000000
0.000000
0.000000
0.000000
0.000000
0.000000
0.000000
0.000000
0.000000
0.000000
0.000000
0.000000
0.000000
0.000000
0.000000
0.000000
0.000000
0.000000
0.000000
0.000000
0.000000
0.000000
0.000000
0.000000
0.000000
0.000000
0.000000
0.000000
0.000000
0.000000
0.000000
0.000000
0.000000
0.000000
0.000000
0.000000
0.000000
0.000000
0.000000
0.000000
0.000000
0.000000
0.000000
0.000000
0.000000
0.000000
0.000000
0.000000
0.000000
0.000000
0.000000
0.000000
0.000000
0.000000
0.000000
0.000000
0.000000
</DataArray>
<DataArray NumberOfComponents='1' type='Float32' Name='pressure' format='ascii'>
0.000000
0.000000
0.000000
0.000000
0.000000
0.000000
0.000000
0.000000
0.000000
0.000000
0.000000
0.000000
0.000000
0.000000
0.000000
0.000000
0.000000
0.000000
0.000000
0.000000
0.000000
0.000000
0.000000
0.000000
0.000000
0.000000
0.000000
0.000000
0.000000
0.000000
0.000000
0.000000
0.000000
0.000000
0.000000
0.000000
0.000000
0.000000
0.000000
0.000000
0.000000
0.000000
0.000000
0.000000
0.000000
0.000000
0.000000
0.000000
0.000000
0.000000
0.000000
0.000000
0.000000
0.000000
0.000000
0.000000
0.000000
0.000000
526.739624
559.029968
1393.379272
293.306427
0.000000
0.000000
0.000000
0.000000
0.000000
0.000000
0.000000
0.000000
0.000000
0.000000
0.000000
0.000000
0.000000
0.000000
0.000000
0.000000
0.000000
0.000000
0.000000
0.000000
0.000000
0.000000
0.000000
0.000000
419.381348
497.642609
853.464539
0.000000
0.000000
0.000000
0.000000
0.000000
0.000000
0.000000
0.000000
0.000000
0.000000
0.000000
0.000000
0.000000
0.000000
0.000000
0.000000
0.000000
0.000000
0.000000
0.000000
0.000000
0.000000
0.000000
0.000000
0.000000
542.394470
0.000000
513.810486
0.000000
0.000000
0.000000
1463.309937
231.675690
0.000000
555.420532
527.450012
0.000000
354.937286
0.000000
0.000000
1045.958862
0.000000
0.000000
0.000000
239.184326
0.000000
0.000000
0.000000
0.000000
707.201416
0.000000
945.986633
1494.901855
0.000000
0.000000
0.000000
2735.941406
1267.637451
1680.601196
0.000000
0.000000
0.000000
0.000000
0.000000
0.000000
0.000000
0.000000
0.000000
0.000000
0.000000
0.000000
0.000000
0.000000
582.601196
0.000000
0.000000
0.000000
1793.006348
0.000000
1376.089966
0.000000
2320.064209
0.000000
2216.616943
1148.111572
3635.266602
0.000000
0.000000
1789.096313
398.538391
0.000000
0.000000
0.000000
0.000000
0.000000
0.000000
0.000000
627.745361
1015.212830
4065.134766
2772.832031
737.851318
2899.798096
0.000000
1460.592651
1604.320435
2328.414551
5574.010254
3098.633545
4234.368164
541.773438
1899.878540
2580.388916
1996.092041
1366.061279
3500.484863
4291.681152
1058.234741
0.000000
0.000000
0.000000
0.000000
0.000000
3136.218750
3548.204834
2412.799072
2457.019775
2087.894775
2748.720947
2058.729248
1337.746948
1973.756836
2820.191162
4035.443115
0.000000
692.718689
3377.137451
0.000000
1302.605713
2339.436035
0.000000
0.000000
0.000000
0.000000
0.000000
738.258118
598.500122
817.639282
2664.760010
0.000000
0.000000
3107.791260
0.000000
2623.669678
0.000000
2243.695557
3308.192383
2601.402588
4152.376953
3281.777588
3458.778076
2049.030518
2170.774414
2964.352783
1413.480225
3242.094971
3947.265625
0.000000
0.000000
0.000000
0.000000
0.000000
1889.414795
2104.343750
1395.453979
1761.159180
541.578003
3918.494141
0.000000
0.000000
3683.159424
1429.186401
2630.263428
1771.626587
2188.627930
3086.123535
0.000000
0.000000
1967.043091
338.926208
0.000000
0.000000
0.000000
1524.561401
0.000000
0.000000
0.000000
0.000000
0.000000
0.000000
0.000000
0.000000
0.000000
2847.089111
2142.601807
0.000000
3051.193848
0.000000
0.000000
1796.791138
0.000000
0.000000
0.000000
1818.158447
3489.337402
0.000000
0.000000
1863.932129
165.354889
0.000000
0.000000
0.000000
0.000000
0.000000
0.000000
0.000000
0.000000
305.787018
0.000000
590.882385
0.000000
289.714661
1454.402588
2514.984375
0.000000
0.000000
0.000000
0.000000
0.000000
0.000000
0.000000
519.567078
0.000000
0.000000
0.000000
1989.587158
0.000000
0.000000
0.000000
0.000000
0.000000
0.000000
0.000000
0.000000
0.000000
147.294601
1785.504639
0.000000
0.000000
1789.837646
2811.969482
0.000000
892.174927
0.000000
0.000000
1513.447388
89.468727
0.000000
0.000000
1521.658203
0.000000
0.000000
0.000000
1569.153931
1331.912720
0.000000
0.000000
0.000000
0.000000
0.000000
0.000000
0.000000
0.000000
0.000000
0.000000
135.220047
1012.345459
0.000000
0.000000
0.000000
0.000000
0.000000
0.000000
0.000000
0.000000
0.000000
0.000000
0.000000
0.000000
0.000000
0.000000
0.000000
0.000000
0.000000
0.000000
0.000000
0.000000
0.000000
0.000000
356.595673
0.000000
0.000000
0.000000
0.000000
131.926804
0.000000
0.000000
908.607300
1583.054688
0.000000
0.000000
1977.890747
0.000000
0.000000
0.000000
4076.236816
855.346008
0.000000
0.000000
4617.217285
3819.916992
0.000000
0.000000
2454.145996
2036.449829
0.000000
0.000000
2859.809570
2276.069580
0.000000
0.000000
2412.436523
1139.066772
0.000000
0.000000
4743.515137
4001.572754
0.000000
0.000000
4305.722168
2542.158936
0.000000
0.000000
4103.215820
2447.307617
0.000000
0.000000
4050.480957
2440.379639
0.000000
0.000000
4099.345703
3173.502441
0.000000
0.000000
3914.547607
2179.690918
0.000000
0.000000
3243.852051
2268.146729
0.000000
0.000000
4235.882812
4584.895020
0.000000
0.000000
4168.773438
3305.898438
0.000000
0.000000
3936.597900
2410.525146
0.000000
0.000000
2705.597656
1626.897949
1478.011719
2826.218994
1897.844482
3275.007812
3916.887207
204.879013
0.000000
1860.774414
0.000000
0.000000
0.000000
0.000000
0.000000
0.000000
0.000000
0.000000
0.000000
0.000000
0.000000
0.000000
0.000000
0.000000
0.000000
0.000000
0.000000
0.000000
2462.299805
2419.130859
2589.925293
3521.016357
2922.153809
3417.760986
3135.394531
1591.411255
657.464478
2073.037354
796.309998
0.000000
0.000000
0.000000
0.000000
0.000000
0.000000
0.000000
0.000000
0.000000
0.000000
0.000000
0.000000
0.000000
0.000000
0.000000
0.000000
0.000000
0.000000
0.000000
0.000000
0.000000
0.000000
0.000000
0.000000
0.000000
0.000000
0.000000
0.000000
0.000000
0.000000
0.000000
0.000000
0.000000
0.000000
0.000000
0.000000
0.000000
0.000000
0.000000
0.000000
0.000000
0.000000
0.000000
0.000000
0.000000
0.000000
0.000000
0.000000
0.000000
0.000000
0.000000
0.000000
0.000000
0.000000
0.000000
0.000000
0.000000
0.000000
0.000000
0.000000
0.000000
0.000000
0.000000
0.000000
0.000000
0.000000
0.000000
0.000000
0.000000
0.000000
0.000000
</DataArray>
</PointData>
<Cells>
<DataArray type='Int32' Name='connectivity' format='ascii'>
0
1
2
3
4
5
6
7
8
9
10
11
12
13
14
15
16
17
18
19
20
21
22
23
24
25
26
27
28
29
30
31
32
33
34
35
36
37
38
39
40
41
42
43
44
45
46
47
48
49
50
51
52
53
54
55
56
57
58
59
60
61
62
63
64
65
66
67
68
69
70
71
72
73
74
75
76
77
78
79
80
81
82
83
84
85
86
87
88
89
90
91
92
93
94
95
96
97
98
99
100
101
102
103
104
105
106
107
108
109
110
111
112
113
114
115
116
117
118
119
120
121
122
123
124
125
126
127
128
129
130
131
132
133
134
135
136
137
138
139
140
141
142
143
144
145
146
147
148
149
150
151
152
153
154
155
156
157
158
159
160
161
162
163
164
165
166
167
168
169
170
171
172
173
174
175
176
177
178
179
180
181
182
183
184
185
186
187
188
189
190
191
192
193
194
195
196
197
198
199
200
201
202
203
204
205
206
207
208
209
210
211
212
213
214
215
216
217
218
219
220
221
222
223
224
225
226
227
228
229
230
231
232
233
234
235
236
237
238
239
240
241
242
243
244
245
246
247
248
249
250
251
252
253
254
255
256
257
258
259
260
261
262
263
264
265
266
267
268
269
270
271
272
273
274
275
276
277
278
279
280
281
282
283
284
285
286
287
288
289
290
291
292
293
294
295
296
297
298
299
300
301
302
303
304
305
306
307
308
309
310
311