<?xml version='1.0' encoding='UTF-8'?>
<VTKFile xmlns='VTK' byte_order='LittleEndian' version='0.1' type='UnstructuredGrid'>
<UnstructuredGrid>
<Piece NumberOfCells='584' NumberOfPoints='584'>
<Points>
<DataArray NumberOfComponents='3' type='Float32' Name='Position' format='ascii'>
-0.075000 -0.075000 0.000000
-0.075000 -0.050000 0.000000
-0.075000 -0.025000 0.000000
-0.075000 0.000000 0.000000
-0.075000 0.025000 0.000000
-0.075000 0.050000 0.000000
-0.075000 0.075000 0.000000
-0.075000 0.100000 0.000000
-0.075000 0.125000 0.000000
-0.075000 0.150000 0.000000
-0.075000 0.175000 0.000000
-0.075000 0.200000 0.000000
-0.075000 0.225000 0.000000
-0.075000 0.250000 0.000000
-0.075000 0.275000 0.000000
-0.075000 0.300000 0.000000
-0.075000 0.325000 0.000000
-0.075000 0.350000 0.000000
-0.075000 0.375000 0.000000
-0.075000 0.400000 0.000000
-0.075000 0.425000 0.000000
-0.075000 0.450000 0.000000
-0.075000 0.475000 0.000000
-0.075000 0.500000 0.000000
-0.075000 0.525000 0.000000
-0.075000 0.550000 0.000000
-0.075000 0.575000 0.000000
-0.075000 0.600000 0.000000
-0.050000 -0.075000 0.000000
-0.050000 -0.050000 0.000000
-0.050000 -0.025000 0.000000
-0.050000 0.000000 0.000000
-0.050000 0.025000 0.000000
-0.050000 0.050000 0.000000
-0.050000 0.075000 0.000000
-0.050000 0.100000 0.000000
-0.050000 0.125000 0.000000
-0.050000 0.150000 0.000000
-0.050000 0.175000 0.000000
-0.050000 0.200000 0.000000
-0.050000 0.225000 0.000000
-0.050000 0.250000 0.000000
-0.050000 0.275000 0.000000
-0.050000 0.300000 0.000000
-0.050000 0.325000 0.000000
-0.050000 0.350000 0.000000
-0.050000 0.375000 0.000000
-0.050000 0.400000 0.000000
-0.050000 0.425000 0.000000
-0.050000 0.450000 0.000000
-0.050000 0.475000 0.000000
-0.050000 0.500000 0.000000
-0.050000 0.525000 0.000000
-0.050000 0.550000 0.000000
-0.050000 0.575000 0.000000
-0.050000 0.600000 0.000000
-0.025000 -0.075000 0.000000
-0.025000 -0.050000 0.000000
-0.025000 -0.025000 0.000000
-0.025000 0.000000 0.000000
-0.025000 0.025000 0.000000
-0.025000 0.050000 0.000000
-0.025000 0.075000 0.000000
-0.025000 0.100000 0.000000
-0.025000 0.125000 0.000000
-0.025000 0.150000 0.000000
-0.025000 0.175000 0.000000
-0.025000 0.200000 0.000000
-0.025000 0.225000 0.000000
-0.025000 0.250000 0.000000
-0.025000 0.275000 0.000000
-0.025000 0.300000 0.000000
-0.025000 0.325000 0.000000
-0.025000 0.350000 0.000000
-0.025000 0.375000 0.000000
-0.025000 0.400000 0.000000
-0.025000 0.425000 0.000000
-0.025000 0.450000 0.000000
-0.025000 0.475000 0.000000
-0.025000 0.500000 0.000000
-0.025000 0.525000 0.000000
-0.025000 0.550000 0.000000
-0.025000 0.575000 0.000000
-0.025000 0.600000 0.000000
0.000000 -0.075000 0.000000
0.000000 -0.050000 0.000000
0.000000 -0.025000 0.000000
0.000000 0.000000 0.000000
0.000000 0.025000 0.000000
0.000000 0.050000 0.000000
0.000000 0.075000 0.000000
0.000000 0.100000 0.000000
0.000000 0.125000 0.000000
0.000000 0.150000 0.000000
0.000000 0.175000 0.000000
0.000000 0.200000 0.000000
0.000000 0.225000 0.000000
0.000000 0.250000 0.000000
0.000000 0.275000 0.000000
0.000000 0.300000 0.000000
0.000000 0.325000 0.000000
0.000000 0.350000 0.000000
0.000000 0.375000 0.000000
0.000000 0.400000 0.000000
0.000000 0.425000 0.000000
0.000000 0.450000 0.000000
0.000000 0.475000 0.000000
0.000000 0.500000 0.000000
0.000000 0.525000 0.000000
0.000000 0.550000 0.000000
0.000000 0.575000 0.000000
0.000000 0.600000 0.000000
0.025000 -0.075000 0.000000
0.025000 -0.050000 0.000000
0.025000 -0.025000 0.000000
0.025000 0.000000 0.000000
0.226579 0.027260 0.000000
0.204785 0.024420 0.000000
0.170070 0.021350 0.000000
0.122100 0.024863 0.000000
0.306241 0.045046 0.000000
0.064160 0.020710 0.000000
0.390140 0.023818 0.000000
0.254672 0.022971 0.000000
0.145848 0.029278 0.000000
0.118609 0.046166 0.000000
0.195658 0.042935 0.000000
0.163591 0.044485 0.000000
0.098228 0.028181 0.000000
0.028641 0.022846 0.000000
0.026874 0.043240 0.000000
0.028449 0.067793 0.000000
0.079122 0.041008 0.000000
0.071359 0.063748 0.000000
0.040554 0.074650 0.000000
0.085074 0.070225 0.000000
0.050000 -0.075000 0.000000
0.050000 -0.050000 0.000000
0.050000 -0.025000 0.000000
0.050000 0.000000 0.000000
0.271995 0.029482 0.000000
0.364512 0.082835 0.000000
0.485770 0.054839 0.000000
0.455666 0.057469 0.000000
0.459385 0.080557 0.000000
0.512999 0.079531 0.000000
0.400799 0.044093 0.000000
0.591674 0.061744 0.000000
0.320513 0.021678 0.000000
0.336185 0.041055 0.000000
0.425286 0.068321 0.000000
0.337784 0.068097 0.000000
0.052728 0.042532 0.000000
0.360119 0.043161 0.000000
0.186451 0.074216 0.000000
0.223960 0.049063 0.000000
0.151495 0.066075 0.000000
0.202011 0.074312 0.000000
0.107677 0.076448 0.000000
0.116889 0.066228 0.000000
0.075000 -0.075000 0.000000
0.075000 -0.050000 0.000000
0.075000 -0.025000 0.000000
0.075000 0.000000 0.000000
0.293976 0.029270 0.000000
0.434218 0.041526 0.000000
0.450231 0.028506 0.000000
0.419170 0.021943 0.000000
0.644502 0.058638 0.000000
0.707951 0.020241 0.000000
0.733131 0.031679 0.000000
0.528434 0.069852 0.000000
0.669761 0.065837 0.000000
0.662061 0.032666 0.000000
0.493109 0.032790 0.000000
0.366515 0.122800 0.000000
0.373098 0.062353 0.000000
0.311538 0.065141 0.000000
0.265699 0.072632 0.000000
0.228795 0.070693 0.000000
0.247041 0.068510 0.000000
0.390105 0.057571 0.000000
0.321594 0.074636 0.000000
0.171968 0.066831 0.000000
0.100000 -0.075000 0.000000
0.100000 -0.050000 0.000000
0.100000 -0.025000 0.000000
0.100000 0.000000 0.000000
0.511835 0.026011 0.000000
0.470887 0.024373 0.000000
0.680570 0.031665 0.000000
0.882219 0.021667 0.000000
0.358913 0.021092 0.000000
0.807795 0.024198 0.000000
0.844349 0.045867 0.000000
0.790521 0.071448 0.000000
0.756057 0.021890 0.000000
0.777341 0.026925 0.000000
0.529784 0.032463 0.000000
0.551401 0.022060 0.000000
0.627375 0.065037 0.000000
0.686902 0.051981 0.000000
0.561361 0.069383 0.000000
0.262324 0.055593 0.000000
0.573180 0.048731 0.000000
0.607334 0.075306 0.000000
0.439930 0.085138 0.000000
0.425145 0.086342 0.000000
0.125000 -0.075000 0.000000
0.125000 -0.050000 0.000000
0.125000 -0.025000 0.000000
0.125000 0.000000 0.000000
0.905923 0.038537 0.000000
0.802032 0.041165 0.000000
1.005070 0.099995 0.000000
0.959178 0.022941 0.000000
0.983674 0.170889 0.000000
0.578783 0.025064 0.000000
0.893375 0.084314 0.000000
0.937946 0.139191 0.000000
0.884020 0.056103 0.000000
0.821143 0.068180 0.000000
0.918157 0.098470 0.000000
0.879666 0.089677 0.000000
0.761401 0.078699 0.000000
0.622845 0.039280 0.000000
0.548021 0.049400 0.000000
0.631705 0.023105 0.000000
0.865325 0.053336 0.000000
0.541144 0.083652 0.000000
0.721858 0.075876 0.000000
0.482507 0.070237 0.000000
0.150000 -0.075000 0.000000
0.150000 -0.050000 0.000000
0.150000 -0.025000 0.000000
0.150000 0.000000 0.000000
0.955645 0.190803 0.000000
0.984281 0.102120 0.000000
0.979477 0.334265 0.000000
0.909732 0.340325 0.000000
0.994610 0.076071 0.000000
0.891612 0.389014 0.000000
0.964707 0.102357 0.000000
0.905740 0.177228 0.000000
0.969116 0.075797 0.000000
0.964237 0.160797 0.000000
0.962631 0.043215 0.000000
0.860845 0.026905 0.000000
0.923626 0.022541 0.000000
0.938056 0.040176 0.000000
0.833429 0.025909 0.000000
0.762487 0.064622 0.000000
0.710615 0.054967 0.000000
0.778509 0.051716 0.000000
0.727092 0.048434 0.000000
0.603159 0.025002 0.000000
0.175000 -0.075000 0.000000
0.175000 -0.050000 0.000000
0.175000 -0.025000 0.000000
0.175000 0.000000 0.000000
0.681019 0.309109 0.000000
1.004750 0.154739 0.000000
0.998201 0.261435 0.000000
0.997312 0.185541 0.000000
0.985626 0.139962 0.000000
0.934224 0.343629 0.000000
0.993644 0.019996 0.000000
0.975293 0.215038 0.000000
0.909973 0.249347 0.000000
1.003153 0.045324 0.000000
0.968490 0.231137 0.000000
0.997135 0.231040 0.000000
0.873821 0.170572 0.000000
0.972747 0.130592 0.000000
0.928473 0.075381 0.000000
0.932263 0.227121 0.000000
0.947119 0.072006 0.000000
0.927936 0.121319 0.000000
0.853901 0.086814 0.000000
0.886113 0.112747 0.000000
0.200000 -0.075000 0.000000
0.200000 -0.050000 0.000000
0.200000 -0.025000 0.000000
0.200000 0.000000 0.000000
0.862248 0.771740 0.000000
0.953766 0.287946 0.000000
0.919061 0.475762 0.000000
0.988125 0.347912 0.000000
0.914022 0.389029 0.000000
0.926179 0.418782 0.000000
0.959580 0.448531 0.000000
0.988559 0.394244 0.000000
0.960149 0.335836 0.000000
0.881702 0.308612 0.000000
0.992908 0.378058 0.000000
0.984241 0.051396 0.000000
0.835891 0.297058 0.000000
0.925590 0.202262 0.000000
0.938096 0.154777 0.000000
0.941718 0.260317 0.000000
0.981422 0.281928 0.000000
0.942181 0.186562 0.000000
0.939399 0.107939 0.000000
0.915393 0.055333 0.000000
0.225000 -0.075000 0.000000
0.225000 -0.050000 0.000000
0.225000 -0.025000 0.000000
0.225000 0.000000 0.000000
0.932981 0.432365 0.000000
0.962357 1.250561 0.000000
0.951116 0.372728 0.000000
0.842449 0.352850 0.000000
0.692104 0.302924 0.000000
0.842804 0.419253 0.000000
0.938073 0.489211 0.000000
0.994204 0.458048 0.000000
0.976402 0.408497 0.000000
0.904926 0.419281 0.000000
0.987024 0.417368 0.000000
0.881164 0.402206 0.000000
0.696894 0.269640 0.000000
0.829504 0.249064 0.000000
0.926362 0.353464 0.000000
0.965155 0.356848 0.000000
0.863406 0.279994 0.000000
0.906724 0.220144 0.000000
0.896558 0.189135 0.000000
0.901162 0.145582 0.000000
0.250000 -0.075000 0.000000
0.250000 -0.050000 0.000000
0.250000 -0.025000 0.000000
0.250000 0.000000 0.000000
0.970707 1.043732 0.000000
0.841507 0.964387 0.000000
0.844002 0.516851 0.000000
0.903774 0.547167 0.000000
0.739263 1.073968 0.000000
0.934862 0.625490 0.000000
0.751544 0.926822 0.000000
0.825060 0.793505 0.000000
0.703019 0.443812 0.000000
0.948225 0.466392 0.000000
0.803105 0.277562 0.000000
0.867484 0.396058 0.000000
0.902349 0.439693 0.000000
0.614128 0.112269 0.000000
0.867701 0.356850 0.000000
0.822688 0.083185 0.000000
0.781498 0.345450 0.000000
0.996088 0.208096 0.000000
0.896757 0.237040 0.000000
0.984344 0.253167 0.000000
0.275000 -0.075000 0.000000
0.275000 -0.050000 0.000000
0.275000 -0.025000 0.000000
0.275000 0.000000 0.000000
0.300000 -0.075000 0.000000
0.300000 -0.050000 0.000000
0.300000 -0.025000 0.000000
0.300000 0.000000 0.000000
0.325000 -0.075000 0.000000
0.325000 -0.050000 0.000000
0.325000 -0.025000 0.000000
0.325000 0.000000 0.000000
0.350000 -0.075000 0.000000
0.350000 -0.050000 0.000000
0.350000 -0.025000 0.000000
0.350000 0.000000 0.000000
0.375000 -0.075000 0.000000
0.375000 -0.050000 0.000000
0.375000 -0.025000 0.000000
0.375000 0.000000 0.000000
0.400000 -0.075000 0.000000
0.400000 -0.050000 0.000000
0.400000 -0.025000 0.000000
0.400000 0.000000 0.000000
0.425000 -0.075000 0.000000
0.425000 -0.050000 0.000000
0.425000 -0.025000 0.000000
0.425000 0.000000 0.000000
0.450000 -0.075000 0.000000
0.450000 -0.050000 0.000000
0.450000 -0.025000 0.000000
0.450000 0.000000 0.000000
0.475000 -0.075000 0.000000
0.475000 -0.050000 0.000000
0.475000 -0.025000 0.000000
0.475000 0.000000 0.000000
0.500000 -0.075000 0.000000
0.500000 -0.050000 0.000000
0.500000 -0.025000 0.000000
0.500000 0.000000 0.000000
0.525000 -0.075000 0.000000
0.525000 -0.050000 0.000000
0.525000 -0.025000 0.000000
0.525000 0.000000 0.000000
0.550000 -0.075000 0.000000
0.550000 -0.050000 0.000000
0.550000 -0.025000 0.000000
0.550000 0.000000 0.000000
0.575000 -0.075000 0.000000
0.575000 -0.050000 0.000000
0.575000 -0.025000 0.000000
0.575000 0.000000 0.000000
0.600000 -0.075000 0.000000
0.600000 -0.050000 0.000000
0.600000 -0.025000 0.000000
0.600000 0.000000 0.000000
0.625000 -0.075000 0.000000
0.625000 -0.050000 0.000000
0.625000 -0.025000 0.000000
0.625000 0.000000 0.000000
0.650000 -0.075000 0.000000
0.650000 -0.050000 0.000000
0.650000 -0.025000 0.000000
0.650000 0.000000 0.000000
0.675000 -0.075000 0.000000
0.675000 -0.050000 0.000000
0.675000 -0.025000 0.000000
0.675000 0.000000 0.000000
0.700000 -0.075000 0.000000
0.700000 -0.050000 0.000000
0.700000 -0.025000 0.000000
0.700000 0.000000 0.000000
0.725000 -0.075000 0.000000
0.725000 -0.050000 0.000000
0.725000 -0.025000 0.000000
0.725000 0.000000 0.000000
0.750000 -0.075000 0.000000
0.750000 -0.050000 0.000000
0.750000 -0.025000 0.000000
0.750000 0.000000 0.000000
0.775000 -0.075000 0.000000
0.775000 -0.050000 0.000000
0.775000 -0.025000 0.000000
0.775000 0.000000 0.000000
0.800000 -0.075000 0.000000
0.800000 -0.050000 0.000000
0.800000 -0.025000 0.000000
0.800000 0.000000 0.000000
0.825000 -0.075000 0.000000
0.825000 -0.050000 0.000000
0.825000 -0.025000 0.000000
0.825000 0.000000 0.000000
0.850000 -0.075000 0.000000
0.850000 -0.050000 0.000000
0.850000 -0.025000 0.000000
0.850000 0.000000 0.000000
0.875000 -0.075000 0.000000
0.875000 -0.050000 0.000000
0.875000 -0.025000 0.000000
0.875000 0.000000 0.000000
0.900000 -0.075000 0.000000
0.900000 -0.050000 0.000000
0.900000 -0.025000 0.000000
0.900000 0.000000 0.000000
0.925000 -0.075000 0.000000
0.925000 -0.050000 0.000000
0.925000 -0.025000 0.000000
0.925000 0.000000 0.000000
0.950000 -0.075000 0.000000
0.950000 -0.050000 0.000000
0.950000 -0.025000 0.000000
0.950000 0.000000 0.000000
0.975000 -0.075000 0.000000
0.975000 -0.050000 0.000000
0.975000 -0.025000 0.000000
0.975000 0.000000 0.000000
1.000000 -0.075000 0.000000
1.000000 -0.050000 0.000000
1.000000 -0.025000 0.000000
1.000000 0.000000 0.000000
1.025000 -0.075000 0.000000
1.025000 -0.050000 0.000000
1.025000 -0.025000 0.000000
1.025000 0.000000 0.000000
1.025000 0.025000 0.000000
1.025000 0.050000 0.000000
1.025000 0.075000 0.000000
1.025000 0.100000 0.000000
1.025000 0.125000 0.000000
1.025000 0.150000 0.000000
1.025000 0.175000 0.000000
1.025000 0.200000 0.000000
1.025000 0.225000 0.000000
1.025000 0.250000 0.000000
1.025000 0.275000 0.000000
1.025000 0.300000 0.000000
1.025000 0.325000 0.000000
1.025000 0.350000 0.000000
1.025000 0.375000 0.000000
1.025000 0.400000 0.000000
1.025000 0.425000 0.000000
1.025000 0.450000 0.000000
1.025000 0.475000 0.000000
1.025000 0.500000 0.000000
1.025000 0.525000 0.000000
1.025000 0.550000 0.000000
1.025000 0.575000 0.000000
1.025000 0.600000 0.000000
1.050000 -0.075000 0.000000
1.050000 -0.050000 0.000000
1.050000 -0.025000 0.000000
1.050000 0.000000 0.000000
1.050000 0.025000 0.000000
1.050000 0.050000 0.000000
1.050000 0.075000 0.000000
1.050000 0.100000 0.000000
1.050000 0.125000 0.000000
1.050000 0.150000 0.000000
1.050000 0.175000 0.000000
1.050000 0.200000 0.000000
1.050000 0.225000 0.000000
1.050000 0.250000 0.000000
1.050000 0.275000 0.000000
1.050000 0.300000 0.000000
1.050000 0.325000 0.000000
1.050000 0.350000 0.000000
1.050000 0.375000 0.000000
1.050000 0.400000 0.000000
1.050000 0.425000 0.000000
1.050000 0.450000 0.000000
1.050000 0.475000 0.000000
1.050000 0.500000 0.000000
1.050000 0.525000 0.000000
1.050000 0.550000 0.000000
1.050000 0.575000 0.000000
1.050000 0.600000 0.000000
1.075000 -0.075000 0.000000
1.075000 -0.050000 0.000000
1.075000 -0.025000 0.000000
1.075000 0.000000 0.000000
1.075000 0.025000 0.000000
1.075000 0.050000 0.000000
1.075000 0.075000 0.000000
1.075000 0.100000 0.000000
1.075000 0.125000 0.000000
1.075000 0.150000 0.000000
1.075000 0.175000 0.000000
1.075000 0.200000 0.000000
1.075000 0.225000 0.000000
1.075000 0.250000 0.000000
1.075000 0.275000 0.000000
1.075000 0.300000 0.000000
1.075000 0.325000 0.000000
1.075000 0.350000 0.000000
1.075000 0.375000 0.000000
1.075000 0.400000 0.000000
1.075000 0.425000 0.000000
1.075000 0.450000 0.000000
1.075000 0.475000 0.000000
1.075000 0.500000 0.000000
1.075000 0.525000 0.000000
1.075000 0.550000 0.000000
1.075000 0.575000 0.000000
1.075000 0.600000 0.000000
1.100000 -0.075000 0.000000
1.100000 -0.050000 0.000000
1.100000 -0.025000 0.000000
1.100000 0.000000 0.000000
1.100000 0.025000 0.000000
1.100000 0.050000 0.000000
1.100000 0.075000 0.000000
1.100000 0.100000 0.000000
1.100000 0.125000 0.000000
1.100000 0.150000 0.000000
1.100000 0.175000 0.000000
1.100000 0.200000 0.000000
1.100000 0.225000 0.000000
1.100000 0.250000 0.000000
1.100000 0.275000 0.000000
1.100000 0.300000 0.000000
1.100000 0.325000 0.000000
1.100000 0.350000 0.000000
1.100000 0.375000 0.000000
1.100000 0.400000 0.000000
1.100000 0.425000 0.000000
1.100000 0.450000 0.000000
1.100000 0.475000 0.000000
1.100000 0.500000 0.000000
1.100000 0.525000 0.000000
1.100000 0.550000 0.000000
1.100000 0.575000 0.000000
1.100000 0.600000 0.000000
</DataArray>
</Points>
<PointData>
<DataArray NumberOfComponents='1' type='Int32' Name='ParticleType' format='ascii'>
3
3
3
3
3
3
3
3
3
3
3
3
3
3
3
3
3
3
3
3
3
3
3
3
3
3
2
2
3
3
3
3
3
3
3
3
3
3
3
3
3
3
3
3
3
3
3
3
3
3
3
3
3
3
2
2
3
3
2
2
2
2
2
2
2
2
2
2
2
2
2
2
2
2
2
2
2
2
2
2
2
2
2
2
3
3
2
2
2
2
2
2
2
2
2
2
2
2
2
2
2
2
2
2
2
2
2
2
2
2
2
2
3
3
2
2
0
0
0
0
0
0
0
0
0
0
0
0
0
0
0
0
0
0
0
0
3
3
2
2
0
0
0
0
0
0
0
0
0
0
0
0
0
0
0
0
0
0
0
0
3
3
2
2
0
0
0
0
0
0
0
0
0
0
0
0
0
0
0
0
0
0
0
0
3
3
2
2
0
0
0
0
0
0
0
0
0
0
0
0
0
0
0
0
0
0
0
0
3
3
2
2
0
0
0
0
0
0
0
0
0
0
0
0
0
0
0
0
0
0
0
0
3
3
2
2
0
0
0
0
0
0
0
0
0
0
0
0
0
0
0
0
0
0
0
0
3
3
2
2
0
0
0
0
0
0
0
0
0
0
0
0
0
0
0
0
0
0
0
0
3
3
2
2
0
0
0
0
0
0
0
0
0
0
0
0
0
0
0
0
0
0
0
0
3
3
2
2
0
0
0
0
0
0
0
0
0
0
0
0
0
0
0
0
0
0
0
0
3
3
2
2
0
0
0
0
0
0
0
0
0
0
0
0
0
0
0
0
0
0
0
0
3
3
2
2
3
3
2
2
3
3
2
2
3
3
2
2
3
3
2
2
3
3
2
2
3
3
2
2
3
3
2
2
3
3
2
2
3
3
2
2
3
3
2
2
3
3
2
2
3
3
2
2
3
3
2
2
3
3
2
2
3
3
2
2
3
3
2
2
3
3
2
2
3
3
2
2
3
3
2
2
3
3
2
2
3
3
2
2
3
3
2
2
3
3
2
2
3
3
2
2
3
3
2
2
3
3
2
2
3
3
2
2
3
3
2
2
3
3
2
2
3
3
2
2
2
2
2
2
2
2
2
2
2
2
2
2
2
2
2
2
2
2
2
2
2
2
2
2
3
3
2
2
2
2
2
2
2
2
2
2
2
2
2
2
2
2
2
2
2
2
2
2
2
2
2
2
3
3
3
3
3
3
3
3
3
3
3
3
3
3
3
3
3
3
3
3
3
3
3
3
3
3
2
2
3
3
3
3
3
3
3
3
3
3
3
3
3
3
3
3
3
3
3
3
3
3
3
3
3
3
2
2
</DataArray>
<DataArray NumberOfComponents='1' type='Float32' Name='Velocity' format='ascii'>
0.000000
0.000000
0.000000
0.000000
0.000000
0.000000
0.000000
0.000000
0.000000
0.000000
0.000000
0.000000
0.000000
0.000000
0.000000
0.000000
0.000000
0.000000
0.000000
0.000000
0.000000
0.000000
0.000000
0.000000
0.000000
0.000000
0.000000
0.000000
0.000000
0.000000
0.000000
0.000000
0.000000
0.000000
0.000000
0.000000
0.000000
0.000000
0.000000
0.000000
0.000000
0.000000
0.000000
0.000000
0.000000
0.000000
0.000000
0.000000
0.000000
0.000000
0.000000
0.000000
0.000000
0.000000
0.000000
0.000000
0.000000
0.000000
0.000000
0.000000
0.000000
0.000000
0.000000
0.000000
0.000000
0.000000
0.000000
0.000000
0.000000
0.000000
0.000000
0.000000
0.000000
0.000000
0.000000
0.000000
0.000000
0.000000
0.000000
0.000000
0.000000
0.000000
0.000000
0.000000
0.000000
0.000000
0.000000
0.000000
0.000000
0.000000
0.000000
0.000000
0.000000
0.000000
0.000000
0.000000
0.000000
0.000000
0.000000
0.000000
0.000000
0.000000
0.000000
0.000000
0.000000
0.000000
0.000000
0.000000
0.000000
0.000000
0.000000
0.000000
0.000000
0.000000
0.000000
0.000000
0.257655
0.344218
0.285883
0.079195
0.567202
0.226084
0.827794
0.333377
0.435130
0.266663
0.386722
0.154163
0.335920
0.129124
0.154299
0.129105
0.213376
0.397131
0.353276
0.237779
0.000000
0.000000
0.000000
0.000000
0.242076
0.942360
0.989757
0.737054
1.102058
1.152581
0.541436
1.036550
0.326099
0.563799
0.886403
0.735626
0.045090
0.385090
0.415303
0.203851
0.124196
0.547876
0.088528
0.099601
0.000000
0.000000
0.000000
0.000000
0.455544
0.707339
0.886835
0.617137
1.206924
1.107680
1.231305
1.318704
1.557994
1.022987
0.936902
0.737782
0.557505
0.517493
0.245154
0.476131
0.398739
0.671420
0.626257
0.520398
0.000000
0.000000
0.000000
0.000000
0.824340
0.659408
1.009407
0.687059
0.530111
0.989594
1.434888
0.488280
1.311722
1.192719
0.975468
0.956736
1.078003
1.291809
1.126790
0.716817
1.276940
1.529647
0.908837
0.736315
0.000000
0.000000
0.000000
0.000000
0.542244
0.962315
0.750899
0.027620
1.061539
1.002654
0.873684
1.183081
1.382693
1.158337
0.335632
0.958836
1.189787
0.917783
1.225487
0.997828
1.213034
1.517198
1.398528
1.007005
0.000000
0.000000
0.000000
0.000000
0.706470
0.359773
0.196576
0.654171
0.127850
0.498268
0.243306
0.279741
0.554516
1.001678
0.211179
0.678214
0.334697
0.310074
0.689386
0.920882
1.326770
1.145763
1.152030
1.086943
0.000000
0.000000
0.000000
0.000000
1.420727
0.731838
0.588033
0.462015
0.630990
0.388153
0.198374
0.608367
0.376155
0.113595
0.691925
0.381558
0.506046
0.479875
0.597152
0.504185
0.718655
0.599611
1.688394
1.361661
0.000000
0.000000
0.000000
0.000000
0.343954
0.637049
0.629577
0.097832
0.266053
0.136092
0.085681
0.188593
0.346633
0.878977
0.115161
0.442855
1.067722
0.958896
0.837710
0.544517
0.374361
0.783547
0.853369
0.815837
0.000000
0.000000
0.000000
0.000000
0.354905
1.017479
0.140071
1.139004
1.245619
0.998105
0.538319
0.051730
0.245927
0.491077
0.111989
0.629546
1.338593
1.193993
0.373087
0.505624
0.716434
0.902738
0.360982
0.590289
0.000000
0.000000
0.000000
0.000000
0.301049
0.497135
0.734192
0.504122
0.814611
0.438926
0.630619
0.517021
1.156288
0.563771
1.149943
0.704570
0.600449
1.953698
0.760421
0.615667
1.052182
0.616184
0.471790
0.478005
0.000000
0.000000
0.000000
0.000000
0.000000
0.000000
0.000000
0.000000
0.000000
0.000000
0.000000
0.000000
0.000000
0.000000
0.000000
0.000000
0.000000
0.000000
0.000000
0.000000
0.000000
0.000000
0.000000
0.000000
0.000000
0.000000
0.000000
0.000000
0.000000
0.000000
0.000000
0.000000
0.000000
0.000000
0.000000
0.000000
0.000000
0.000000
0.000000
0.000000
0.000000
0.000000
0.000000
0.000000
0.000000
0.000000
0.000000
0.000000
0.000000
0.000000
0.000000
0.000000
0.000000
0.000000
0.000000
0.000000
0.000000
0.000000
0.000000
0.000000
0.000000
0.000000
0.000000
0.000000
0.000000
0.000000
0.000000
0.000000
0.000000
0.000000
0.000000
0.000000
0.000000
0.000000
0.000000
0.000000
0.000000
0.000000
0.000000
0.000000
0.000000
0.000000
0.000000
0.000000
0.000000
0.000000
0.000000
0.000000
0.000000
0.000000
0.000000
0.000000
0.000000
0.000000
0.000000
0.000000
0.000000
0.000000
0.000000
0.000000
0.000000
0.000000
0.000000
0.000000
0.000000
0.000000
0.000000
0.000000
0.000000
0.000000
0.000000
0.000000
0.000000
0.000000
0.000000
0.000000
0.000000
0.000000
0.000000
0.000000
0.000000
0.000000
0.000000
0.000000
0.000000
0.000000
0.000000
0.000000
0.000000
0.000000
0.000000
0.000000
0.000000
0.000000
0.000000
0.000000
0.000000
0.000000
0.000000
0.000000
0.000000
0.000000
0.000000
0.000000
0.000000
0.000000
0.000000
0.000000
0.000000
0.000000
0.000000
0.000000
0.000000
0.000000
0.000000
0.000000
0.000000
0.000000
0.000000
0.000000
0.000000
0.000000
0.000000
0.000000
0.000000
0.000000
0.000000
0.000000
0.000000
0.000000
0.000000
0.000000
0.000000
0.000000
0.000000
0.000000
0.000000
0.000000
0.000000
0.000000
0.000000
0.000000
0.000000
0.000000
0.000000
0.000000
0.000000
0.000000
0.000000
0.000000
0.000000
0.000000
0.000000
0.000000
0.000000
0.000000
0.000000
0.000000
0.000000
0.000000
0.000000
0.000000
0.000000
0.000000
0.000000
0.000000
0.000000
0.000000
0.000000
0.000000
0.000000
0.000000
0.000000
0.000000
0.000000
0.000000
0.000000
0.000000
0.000000
0.000000
0.000000
0.000000
0.000000
0.000000
0.000000
0.000000
0.000000
0.000000
0.000000
0.000000
0.000000
0.000000
</DataArray>
<DataArray NumberOfComponents='1' type='Float32' Name='pressure' format='ascii'>
0.000000
0.000000
0.000000
0.000000
0.000000
0.000000
0.000000
0.000000
0.000000
0.000000
0.000000
0.000000
0.000000
0.000000
0.000000
0.000000
0.000000
0.000000
0.000000
0.000000
0.000000
0.000000
0.000000
0.000000
0.000000
0.000000
0.000000
0.000000
0.000000
0.000000
0.000000
0.000000
0.000000
0.000000
0.000000
0.000000
0.000000
0.000000
0.000000
0.000000
0.000000
0.000000
0.000000
0.000000
0.000000
0.000000
0.000000
0.000000
0.000000
0.000000
0.000000
0.000000
0.000000
0.000000
0.000000
0.000000
0.000000
0.000000
0.000000
0.000000
0.000000
0.000000
0.000000
0.000000
0.000000
0.000000
0.000000
0.000000
0.000000
0.000000
0.000000
0.000000
0.000000
0.000000
0.000000
0.000000
0.000000
0.000000
0.000000
0.000000
0.000000
0.000000
0.000000
0.000000
0.000000
0.000000
0.000000
0.000000
0.000000
0.000000
0.000000
0.000000
0.000000
0.000000
0.000000
0.000000
0.000000
0.000000
0.000000
0.000000
0.000000
0.000000
0.000000
0.000000
0.000000
0.000000
0.000000
0.000000
0.000000
0.000000
0.000000
0.000000
0.000000
0.000000
552.318115
288.313995
1040.259521
1284.583862
85.446152
407.515930
1729.613159
352.017151
1147.207764
1215.589355
0.000000
369.525543
31.569962
997.412598
0.000000
0.000000
122.541817
0.000000
0.000000
0.000000
0.000000
0.000000
0.000000
0.000000
956.856018
0.000000
1195.302856
0.000000
0.000000
1593.846558
0.000000
0.000000
1356.535400
0.000000
1792.523560
1951.646729
0.000000
0.000000
0.000000
2085.726074
0.000000
681.506287
0.000000
0.000000
0.000000
0.000000
0.000000
0.000000
1133.584717
0.000000
1115.403687
0.000000
1204.669067
0.000000
0.000000
0.000000
0.000000
0.000000
0.000000
0.000000
0.000000
0.000000
0.000000
401.317413
0.000000
0.000000
268.434723
1020.505493
0.000000
141.191071
0.000000
0.000000
0.000000
0.000000
597.095764
730.552307
0.000000
1422.631226
1720.162598
1871.360229
0.000000
0.000000
0.000000
0.000000
0.000000
1186.303711
0.000000
0.000000
0.000000
188.460892
0.000000
0.000000
0.000000
0.000000
0.000000
0.000000
178.636337
0.000000
842.874634
70.987823
1369.974731
1510.378662
2002.295166
0.000000
1084.756714
883.727600
0.000000
0.000000
0.000000
0.000000
0.000000
1024.664551
295.399628
0.000000
0.000000
0.000000
0.000000
0.000000
0.000000
0.000000
641.280945
358.223206
0.000000
2339.042236
0.000000
0.000000
1186.153442
0.000000
332.842896
0.000000
385.102905
0.000000
2937.446533
2424.091797
1750.661499
2779.032471
0.000000
0.000000
0.000000
63.777721
157.020035
0.000000
0.000000
0.000000
2449.526367
2785.285156
0.000000
0.000000
0.000000
379.222351
0.000000
39.991463
1138.793823
0.000000
0.000000
2535.489746
0.000000
1331.937622
0.000000
0.000000
456.857422
0.000000
846.392700
0.000000
0.000000
0.000000
0.000000
0.000000
1368.370605
1310.192749
0.000000
0.000000
0.000000
0.000000
0.000000
0.000000
0.000000
0.000000
0.000000
0.000000
0.000000
1942.545776
0.000000
0.000000
0.000000
0.000000
0.000000
565.774414
2304.013428
364.483765
0.000000
0.000000
261.080231
234.460388
0.000000
0.000000
0.000000
0.000000
0.000000
0.000000
0.000000
0.000000
0.000000
0.000000
0.000000
698.506348
0.000000
0.000000
0.000000
955.017761
0.000000
0.000000
0.000000
0.000000
0.000000
0.000000
1348.338501
1121.929932
0.000000
0.000000
0.000000
0.000000
0.000000
0.000000
0.000000
0.000000
0.000000
0.000000
0.000000
0.000000
0.000000
0.000000
0.000000
0.000000
0.000000
1625.026978
0.000000
0.000000
0.000000
0.000000
282.724091
0.000000
0.000000
0.000000
1355.850586
115.297913
0.000000
0.000000
3868.916016
3673.501953
0.000000
0.000000
4493.111328
4388.852051
0.000000
0.000000
4049.879639
2294.543701
0.000000
0.000000
3237.085205
2600.845459
0.000000
0.000000
2566.459961
2484.934570
0.000000
0.000000
0.000000
0.000000
0.000000
0.000000
0.000000
0.000000
0.000000
0.000000
0.000000
0.000000
0.000000
0.000000
0.000000
0.000000
0.000000
0.000000
2095.710938
3279.402344
0.000000
0.000000
1370.148193
1783.025757
0.000000
0.000000
1148.640503
1627.481445
0.000000
0.000000
1119.822021
1029.776733
0.000000
0.000000
0.000000
0.000000
0.000000
0.000000
0.000000
0.000000
0.000000
0.000000
891.392822
0.000000
0.000000
0.000000
278.264038
0.000000
0.000000
0.000000
933.541443
1166.999756
0.000000
0.000000
99.082504
0.000000
0.000000
0.000000
113.469208
367.073303
0.000000
0.000000
0.000000
0.000000
0.000000
0.000000
0.000000
137.088394
0.000000
0.000000
1865.311279
1374.412842
0.000000
0.000000
1460.582031
0.000000
0.000000
0.000000
2861.314209
2213.982910
0.000000
0.000000
2988.887207
2549.739990
0.000000
0.000000
3948.736816
896.901489
0.000000
0.000000
4643.388184
4079.531494
0.000000
0.000000
2736.357910
1951.894531
314.131409
2189.209229
247.299316
3449.562500
0.000000
642.430542
0.000000
0.000000
0.000000
0.000000
0.000000
0.000000
0.000000
0.000000
0.000000
0.000000
0.000000
0.000000
0.000000
0.000000
0.000000
0.000000
0.000000
0.000000
0.000000
0.000000
2415.741455
2104.642334
1534.139038
2861.881104
1600.815674
3832.808350
1197.075928
2589.727783
534.685181
0.000000
0.000000
0.000000
0.000000
0.000000
0.000000
0.000000
0.000000
0.000000
0.000000
0.000000
0.000000
0.000000
0.000000
0.000000
0.000000
0.000000
0.000000
0.000000
0.000000
0.000000
0.000000
0.000000
0.000000
0.000000
0.000000
0.000000
0.000000
0.000000
0.000000
0.000000
0.000000
0.000000
0.000000
0.000000
0.000000
0.000000
0.000000
0.000000
0.000000
0.000000
0.000000
0.000000
0.000000
0.000000
0.000000
0.000000
0.000000
0.000000
0.000000
0.000000
0.000000
0.000000
0.000000
0.000000
0.000000
0.000000
0.000000
0.000000
0.000000
0.000000
0.000000
0.000000
0.000000
0.000000
0.000000
0.000000
0.000000
0.000000
0.000000
0.000000
0.000000
0.000000
</DataArray>
</PointData>
<Cells>
<DataArray type='Int32' Name='connectivity' format='ascii'>
0
1
2
3
4
5
6
7
8
9
10
11
12
13
14
15
16
17
18
19
20
21
22
23
24
25
26
27
28
29
30
31
32
33
34
35
36
37
38
39
40
41
42
43
44
45
46
47
48
49
50
51
52
53
54
55
56
57
58
59
60
61
62
63
64
65
66
67
68
69
70
71
72
73
74
75
76
77
78
79
80
81
82
83
84
85
86
87
88
89
90
91
92
93
94
95
96
97
98
99
100
101
102
103
104
105
106
107
108
109
110
111
112
113
114
115
116
117
118
119
120
121
122
123
124
125
126
127
128
129
130
131
132
133
134
135
136
137
138
139
140
141
142
143
144
145
146
147
148
149
150
151
152
153
154
155
156
157
158
159
160
161
162
163
164
165
166
167
168
169
170
171
172
173
174
175
176
177
178
179
180
181
182
183
184
185
186
187
188
189
190
191
192
193
194
195
196
197
198
199
200
201
202
203
204
205
206
207
208
209
210
211
212
213
214
215
216
217
218
219
220
221
222
223
224
225
226
227
228
229
230
231
232
233
234
235
236
237
238
239
240
241
242
243
244
245
246
247
248
249
250
251
252
253
254
255
256
257
258
259
260
261
262
263
264
265
266
267
268
269
270
271
272
273
274
275
276
277
278
279
280
281
282
283
284
285
286
287
288
289
290
291
292
293
294
295
296
297
298
299
300
301
302
303
304
305
306
307
308
309
310
311
312
313
314
315
316
317
318
319
320
321
322
323
324
325
326
327
328
329
330
331
332
333
334
335
336
337
338
339
340
341
342
343
344
345
346
347
348
349