<?xml version='1.0' encoding='UTF-8'?>
<VTKFile xmlns='VTK' byte_order='LittleEndian' version='0.1' type='UnstructuredGrid'>
<UnstructuredGrid>
<Piece NumberOfCells='584' NumberOfPoints='584'>
<Points>
<DataArray NumberOfComponents='3' type='Float32' Name='Position' format='ascii'>
-0.075000 -0.075000 0.000000
-0.075000 -0.050000 0.000000
-0.075000 -0.025000 0.000000
-0.075000 0.000000 0.000000
-0.075000 0.025000 0.000000
-0.075000 0.050000 0.000000
-0.075000 0.075000 0.000000
-0.075000 0.100000 0.000000
-0.075000 0.125000 0.000000
-0.075000 0.150000 0.000000
-0.075000 0.175000 0.000000
-0.075000 0.200000 0.000000
-0.075000 0.225000 0.000000
-0.075000 0.250000 0.000000
-0.075000 0.275000 0.000000
-0.075000 0.300000 0.000000
-0.075000 0.325000 0.000000
-0.075000 0.350000 0.000000
-0.075000 0.375000 0.000000
-0.075000 0.400000 0.000000
-0.075000 0.425000 0.000000
-0.075000 0.450000 0.000000
-0.075000 0.475000 0.000000
-0.075000 0.500000 0.000000
-0.075000 0.525000 0.000000
-0.075000 0.550000 0.000000
-0.075000 0.575000 0.000000
-0.075000 0.600000 0.000000
-0.050000 -0.075000 0.000000
-0.050000 -0.050000 0.000000
-0.050000 -0.025000 0.000000
-0.050000 0.000000 0.000000
-0.050000 0.025000 0.000000
-0.050000 0.050000 0.000000
-0.050000 0.075000 0.000000
-0.050000 0.100000 0.000000
-0.050000 0.125000 0.000000
-0.050000 0.150000 0.000000
-0.050000 0.175000 0.000000
-0.050000 0.200000 0.000000
-0.050000 0.225000 0.000000
-0.050000 0.250000 0.000000
-0.050000 0.275000 0.000000
-0.050000 0.300000 0.000000
-0.050000 0.325000 0.000000
-0.050000 0.350000 0.000000
-0.050000 0.375000 0.000000
-0.050000 0.400000 0.000000
-0.050000 0.425000 0.000000
-0.050000 0.450000 0.000000
-0.050000 0.475000 0.000000
-0.050000 0.500000 0.000000
-0.050000 0.525000 0.000000
-0.050000 0.550000 0.000000
-0.050000 0.575000 0.000000
-0.050000 0.600000 0.000000
-0.025000 -0.075000 0.000000
-0.025000 -0.050000 0.000000
-0.025000 -0.025000 0.000000
-0.025000 0.000000 0.000000
-0.025000 0.025000 0.000000
-0.025000 0.050000 0.000000
-0.025000 0.075000 0.000000
-0.025000 0.100000 0.000000
-0.025000 0.125000 0.000000
-0.025000 0.150000 0.000000
-0.025000 0.175000 0.000000
-0.025000 0.200000 0.000000
-0.025000 0.225000 0.000000
-0.025000 0.250000 0.000000
-0.025000 0.275000 0.000000
-0.025000 0.300000 0.000000
-0.025000 0.325000 0.000000
-0.025000 0.350000 0.000000
-0.025000 0.375000 0.000000
-0.025000 0.400000 0.000000
-0.025000 0.425000 0.000000
-0.025000 0.450000 0.000000
-0.025000 0.475000 0.000000
-0.025000 0.500000 0.000000
-0.025000 0.525000 0.000000
-0.025000 0.550000 0.000000
-0.025000 0.575000 0.000000
-0.025000 0.600000 0.000000
0.000000 -0.075000 0.000000
0.000000 -0.050000 0.000000
0.000000 -0.025000 0.000000
0.000000 0.000000 0.000000
0.000000 0.025000 0.000000
0.000000 0.050000 0.000000
0.000000 0.075000 0.000000
0.000000 0.100000 0.000000
0.000000 0.125000 0.000000
0.000000 0.150000 0.000000
0.000000 0.175000 0.000000
0.000000 0.200000 0.000000
0.000000 0.225000 0.000000
0.000000 0.250000 0.000000
0.000000 0.275000 0.000000
0.000000 0.300000 0.000000
0.000000 0.325000 0.000000
0.000000 0.350000 0.000000
0.000000 0.375000 0.000000
0.000000 0.400000 0.000000
0.000000 0.425000 0.000000
0.000000 0.450000 0.000000
0.000000 0.475000 0.000000
0.000000 0.500000 0.000000
0.000000 0.525000 0.000000
0.000000 0.550000 0.000000
0.000000 0.575000 0.000000
0.000000 0.600000 0.000000
0.025000 -0.075000 0.000000
0.025000 -0.050000 0.000000
0.025000 -0.025000 0.000000
0.025000 0.000000 0.000000
0.100840 0.024826 0.000000
0.079362 0.026871 0.000000
0.062834 0.038806 0.000000
0.045147 0.023120 0.000000
0.112758 0.040868 0.000000
0.024168 0.027852 0.000000
0.130862 0.056046 0.000000
0.099314 0.061644 0.000000
0.076557 0.069292 0.000000
0.054176 0.060033 0.000000
0.091125 0.086397 0.000000
0.051906 0.081054 0.000000
0.023928 0.054482 0.000000
0.025432 0.076326 0.000000
0.022007 0.104460 0.000000
0.040189 0.126421 0.000000
0.051017 0.148121 0.000000
0.025867 0.147370 0.000000
0.037582 0.189644 0.000000
0.029795 0.168371 0.000000
0.050000 -0.075000 0.000000
0.050000 -0.050000 0.000000
0.050000 -0.025000 0.000000
0.050000 0.000000 0.000000
0.142442 0.019158 0.000000
0.145606 0.038296 0.000000
0.169428 0.043971 0.000000
0.240141 0.042620 0.000000
0.192898 0.069385 0.000000
0.193631 0.091663 0.000000
0.168746 0.067209 0.000000
0.231317 0.108280 0.000000
0.114383 0.081626 0.000000
0.148860 0.075669 0.000000
0.129265 0.093903 0.000000
0.151232 0.099709 0.000000
0.044212 0.103887 0.000000
0.119968 0.122000 0.000000
0.081279 0.106704 0.000000
0.091942 0.129833 0.000000
0.067121 0.119086 0.000000
0.076283 0.154617 0.000000
0.057134 0.171163 0.000000
0.075485 0.183958 0.000000
0.075000 -0.075000 0.000000
0.075000 -0.050000 0.000000
0.075000 -0.025000 0.000000
0.075000 0.000000 0.000000
0.189608 0.019915 0.000000
0.214609 0.062572 0.000000
0.239905 0.021187 0.000000
0.191921 0.040516 0.000000
0.266377 0.045827 0.000000
0.354271 0.039298 0.000000
0.344401 0.079798 0.000000
0.226674 0.079815 0.000000
0.281761 0.067737 0.000000
0.251423 0.130735 0.000000
0.245248 0.085201 0.000000
0.180241 0.106262 0.000000
0.158382 0.119084 0.000000
0.137956 0.138325 0.000000
0.104277 0.140843 0.000000
0.098772 0.172455 0.000000
0.120299 0.174208 0.000000
0.144109 0.180610 0.000000
0.162346 0.152136 0.000000
0.090339 0.189768 0.000000
0.100000 -0.075000 0.000000
0.100000 -0.050000 0.000000
0.100000 -0.025000 0.000000
0.100000 0.000000 0.000000
0.294332 0.035110 0.000000
0.273839 0.022699 0.000000
0.329335 0.038298 0.000000
0.402650 0.066588 0.000000
0.216739 0.034276 0.000000
0.394387 0.024080 0.000000
0.391436 0.048297 0.000000
0.363906 0.056950 0.000000
0.323838 0.061131 0.000000
0.346243 0.106799 0.000000
0.255367 0.064768 0.000000
0.300509 0.062191 0.000000
0.283129 0.097755 0.000000
0.266308 0.105611 0.000000
0.208355 0.114044 0.000000
0.136440 0.158726 0.000000
0.241380 0.146134 0.000000
0.202269 0.129830 0.000000
0.195314 0.168887 0.000000
0.174950 0.138973 0.000000
0.125000 -0.075000 0.000000
0.125000 -0.050000 0.000000
0.125000 -0.025000 0.000000
0.125000 0.000000 0.000000
0.471013 0.023682 0.000000
0.362207 0.019920 0.000000
0.592320 0.025566 0.000000
0.563449 0.021119 0.000000
0.567421 0.046963 0.000000
0.314960 0.021811 0.000000
0.429069 0.022141 0.000000
0.446880 0.035534 0.000000
0.435013 0.062331 0.000000
0.368385 0.077693 0.000000
0.429653 0.086403 0.000000
0.401082 0.087470 0.000000
0.321176 0.084094 0.000000
0.262514 0.165121 0.000000
0.246439 0.173626 0.000000
0.271638 0.127584 0.000000
0.349706 0.151652 0.000000
0.234020 0.169807 0.000000
0.296290 0.151523 0.000000
0.200835 0.153648 0.000000
0.150000 -0.075000 0.000000
0.150000 -0.050000 0.000000
0.150000 -0.025000 0.000000
0.150000 0.000000 0.000000
0.695217 0.030881 0.000000
0.618079 0.028383 0.000000
0.670770 0.053557 0.000000
0.614592 0.061834 0.000000
0.678575 0.025361 0.000000
0.703819 0.058239 0.000000
0.541459 0.043839 0.000000
0.638999 0.041399 0.000000
0.526148 0.024414 0.000000
0.547656 0.060721 0.000000
0.503107 0.022763 0.000000
0.411915 0.038465 0.000000
0.481508 0.042754 0.000000
0.481647 0.064736 0.000000
0.410941 0.116365 0.000000
0.334726 0.115150 0.000000
0.304236 0.099901 0.000000
0.332548 0.141283 0.000000
0.311774 0.143381 0.000000
0.302798 0.126410 0.000000
0.175000 -0.075000 0.000000
0.175000 -0.050000 0.000000
0.175000 -0.025000 0.000000
0.175000 0.000000 0.000000
0.875501 0.062133 0.000000
0.763280 0.025116 0.000000
0.854523 0.025701 0.000000
0.881644 0.024447 0.000000
0.833057 0.024688 0.000000
0.717869 0.025585 0.000000
0.803141 0.024273 0.000000
0.780141 0.034716 0.000000
0.696409 0.073231 0.000000
0.739607 0.024289 0.000000
0.593966 0.043579 0.000000
0.629028 0.074426 0.000000
0.509839 0.048612 0.000000
0.523368 0.107962 0.000000
0.455654 0.055861 0.000000
0.517819 0.068245 0.000000
0.451305 0.085876 0.000000
0.427366 0.128224 0.000000
0.382631 0.118655 0.000000
0.381569 0.095468 0.000000
0.200000 -0.075000 0.000000
0.200000 -0.050000 0.000000
0.200000 -0.025000 0.000000
0.200000 0.000000 0.000000
0.979009 0.213493 0.000000
0.939467 0.022408 0.000000
0.970094 0.131914 0.000000
0.915721 0.026033 0.000000
0.979225 0.030480 0.000000
0.960238 0.034234 0.000000
0.924319 0.046718 0.000000
0.894619 0.041039 0.000000
0.825691 0.057277 0.000000
0.818594 0.072888 0.000000
0.776423 0.066824 0.000000
0.642925 0.020913 0.000000
0.739199 0.072964 0.000000
0.656531 0.055132 0.000000
0.537506 0.094904 0.000000
0.589329 0.106186 0.000000
0.595662 0.085498 0.000000
0.496682 0.080369 0.000000
0.498890 0.095743 0.000000
0.443535 0.123922 0.000000
0.225000 -0.075000 0.000000
0.225000 -0.050000 0.000000
0.225000 -0.025000 0.000000
0.225000 0.000000 0.000000
1.002260 0.067470 0.000000
0.985258 0.340598 0.000000
1.003990 0.023991 0.000000
0.957715 0.158889 0.000000
0.985473 0.050688 0.000000
0.973498 0.169809 0.000000
0.987629 0.115497 0.000000
0.965405 0.063954 0.000000
0.942234 0.062960 0.000000
0.975722 0.089705 0.000000
0.911670 0.068029 0.000000
0.909010 0.085994 0.000000
0.892304 0.086331 0.000000
0.841405 0.064197 0.000000
0.761860 0.071292 0.000000
0.722783 0.076830 0.000000
0.698671 0.091594 0.000000
0.611066 0.086002 0.000000
0.554671 0.093781 0.000000
0.444386 0.102525 0.000000
0.250000 -0.075000 0.000000
0.250000 -0.050000 0.000000
0.250000 -0.025000 0.000000
0.250000 0.000000 0.000000
1.005668 0.382941 0.000000
0.972509 0.292804 0.000000
0.999497 0.155370 0.000000
1.005275 0.127028 0.000000
0.971695 0.358573 0.000000
0.988619 0.176636 0.000000
0.955103 0.294699 0.000000
0.998435 0.257762 0.000000
0.950252 0.184764 0.000000
0.999741 0.093103 0.000000
0.956582 0.118935 0.000000
0.941492 0.153559 0.000000
0.955689 0.096402 0.000000
0.926626 0.118236 0.000000
0.936438 0.086217 0.000000
0.864581 0.046879 0.000000
0.802328 0.042670 0.000000
0.747627 0.054505 0.000000
0.652462 0.096181 0.000000
0.570618 0.074341 0.000000
0.275000 -0.075000 0.000000
0.275000 -0.050000 0.000000
0.275000 -0.025000 0.000000
0.275000 0.000000 0.000000
0.300000 -0.075000 0.000000
0.300000 -0.050000 0.000000
0.300000 -0.025000 0.000000
0.300000 0.000000 0.000000
0.325000 -0.075000 0.000000
0.325000 -0.050000 0.000000
0.325000 -0.025000 0.000000
0.325000 0.000000 0.000000
0.350000 -0.075000 0.000000
0.350000 -0.050000 0.000000
0.350000 -0.025000 0.000000
0.350000 0.000000 0.000000
0.375000 -0.075000 0.000000
0.375000 -0.050000 0.000000
0.375000 -0.025000 0.000000
0.375000 0.000000 0.000000
0.400000 -0.075000 0.000000
0.400000 -0.050000 0.000000
0.400000 -0.025000 0.000000
0.400000 0.000000 0.000000
0.425000 -0.075000 0.000000
0.425000 -0.050000 0.000000
0.425000 -0.025000 0.000000
0.425000 0.000000 0.000000
0.450000 -0.075000 0.000000
0.450000 -0.050000 0.000000
0.450000 -0.025000 0.000000
0.450000 0.000000 0.000000
0.475000 -0.075000 0.000000
0.475000 -0.050000 0.000000
0.475000 -0.025000 0.000000
0.475000 0.000000 0.000000
0.500000 -0.075000 0.000000
0.500000 -0.050000 0.000000
0.500000 -0.025000 0.000000
0.500000 0.000000 0.000000
0.525000 -0.075000 0.000000
0.525000 -0.050000 0.000000
0.525000 -0.025000 0.000000
0.525000 0.000000 0.000000
0.550000 -0.075000 0.000000
0.550000 -0.050000 0.000000
0.550000 -0.025000 0.000000
0.550000 0.000000 0.000000
0.575000 -0.075000 0.000000
0.575000 -0.050000 0.000000
0.575000 -0.025000 0.000000
0.575000 0.000000 0.000000
0.600000 -0.075000 0.000000
0.600000 -0.050000 0.000000
0.600000 -0.025000 0.000000
0.600000 0.000000 0.000000
0.625000 -0.075000 0.000000
0.625000 -0.050000 0.000000
0.625000 -0.025000 0.000000
0.625000 0.000000 0.000000
0.650000 -0.075000 0.000000
0.650000 -0.050000 0.000000
0.650000 -0.025000 0.000000
0.650000 0.000000 0.000000
0.675000 -0.075000 0.000000
0.675000 -0.050000 0.000000
0.675000 -0.025000 0.000000
0.675000 0.000000 0.000000
0.700000 -0.075000 0.000000
0.700000 -0.050000 0.000000
0.700000 -0.025000 0.000000
0.700000 0.000000 0.000000
0.725000 -0.075000 0.000000
0.725000 -0.050000 0.000000
0.725000 -0.025000 0.000000
0.725000 0.000000 0.000000
0.750000 -0.075000 0.000000
0.750000 -0.050000 0.000000
0.750000 -0.025000 0.000000
0.750000 0.000000 0.000000
0.775000 -0.075000 0.000000
0.775000 -0.050000 0.000000
0.775000 -0.025000 0.000000
0.775000 0.000000 0.000000
0.800000 -0.075000 0.000000
0.800000 -0.050000 0.000000
0.800000 -0.025000 0.000000
0.800000 0.000000 0.000000
0.825000 -0.075000 0.000000
0.825000 -0.050000 0.000000
0.825000 -0.025000 0.000000
0.825000 0.000000 0.000000
0.850000 -0.075000 0.000000
0.850000 -0.050000 0.000000
0.850000 -0.025000 0.000000
0.850000 0.000000 0.000000
0.875000 -0.075000 0.000000
0.875000 -0.050000 0.000000
0.875000 -0.025000 0.000000
0.875000 0.000000 0.000000
0.900000 -0.075000 0.000000
0.900000 -0.050000 0.000000
0.900000 -0.025000 0.000000
0.900000 0.000000 0.000000
0.925000 -0.075000 0.000000
0.925000 -0.050000 0.000000
0.925000 -0.025000 0.000000
0.925000 0.000000 0.000000
0.950000 -0.075000 0.000000
0.950000 -0.050000 0.000000
0.950000 -0.025000 0.000000
0.950000 0.000000 0.000000
0.975000 -0.075000 0.000000
0.975000 -0.050000 0.000000
0.975000 -0.025000 0.000000
0.975000 0.000000 0.000000
1.000000 -0.075000 0.000000
1.000000 -0.050000 0.000000
1.000000 -0.025000 0.000000
1.000000 0.000000 0.000000
1.025000 -0.075000 0.000000
1.025000 -0.050000 0.000000
1.025000 -0.025000 0.000000
1.025000 0.000000 0.000000
1.025000 0.025000 0.000000
1.025000 0.050000 0.000000
1.025000 0.075000 0.000000
1.025000 0.100000 0.000000
1.025000 0.125000 0.000000
1.025000 0.150000 0.000000
1.025000 0.175000 0.000000
1.025000 0.200000 0.000000
1.025000 0.225000 0.000000
1.025000 0.250000 0.000000
1.025000 0.275000 0.000000
1.025000 0.300000 0.000000
1.025000 0.325000 0.000000
1.025000 0.350000 0.000000
1.025000 0.375000 0.000000
1.025000 0.400000 0.000000
1.025000 0.425000 0.000000
1.025000 0.450000 0.000000
1.025000 0.475000 0.000000
1.025000 0.500000 0.000000
1.025000 0.525000 0.000000
1.025000 0.550000 0.000000
1.025000 0.575000 0.000000
1.025000 0.600000 0.000000
1.050000 -0.075000 0.000000
1.050000 -0.050000 0.000000
1.050000 -0.025000 0.000000
1.050000 0.000000 0.000000
1.050000 0.025000 0.000000
1.050000 0.050000 0.000000
1.050000 0.075000 0.000000
1.050000 0.100000 0.000000
1.050000 0.125000 0.000000
1.050000 0.150000 0.000000
1.050000 0.175000 0.000000
1.050000 0.200000 0.000000
1.050000 0.225000 0.000000
1.050000 0.250000 0.000000
1.050000 0.275000 0.000000
1.050000 0.300000 0.000000
1.050000 0.325000 0.000000
1.050000 0.350000 0.000000
1.050000 0.375000 0.000000
1.050000 0.400000 0.000000
1.050000 0.425000 0.000000
1.050000 0.450000 0.000000
1.050000 0.475000 0.000000
1.050000 0.500000 0.000000
1.050000 0.525000 0.000000
1.050000 0.550000 0.000000
1.050000 0.575000 0.000000
1.050000 0.600000 0.000000
1.075000 -0.075000 0.000000
1.075000 -0.050000 0.000000
1.075000 -0.025000 0.000000
1.075000 0.000000 0.000000
1.075000 0.025000 0.000000
1.075000 0.050000 0.000000
1.075000 0.075000 0.000000
1.075000 0.100000 0.000000
1.075000 0.125000 0.000000
1.075000 0.150000 0.000000
1.075000 0.175000 0.000000
1.075000 0.200000 0.000000
1.075000 0.225000 0.000000
1.075000 0.250000 0.000000
1.075000 0.275000 0.000000
1.075000 0.300000 0.000000
1.075000 0.325000 0.000000
1.075000 0.350000 0.000000
1.075000 0.375000 0.000000
1.075000 0.400000 0.000000
1.075000 0.425000 0.000000
1.075000 0.450000 0.000000
1.075000 0.475000 0.000000
1.075000 0.500000 0.000000
1.075000 0.525000 0.000000
1.075000 0.550000 0.000000
1.075000 0.575000 0.000000
1.075000 0.600000 0.000000
1.100000 -0.075000 0.000000
1.100000 -0.050000 0.000000
1.100000 -0.025000 0.000000
1.100000 0.000000 0.000000
1.100000 0.025000 0.000000
1.100000 0.050000 0.000000
1.100000 0.075000 0.000000
1.100000 0.100000 0.000000
1.100000 0.125000 0.000000
1.100000 0.150000 0.000000
1.100000 0.175000 0.000000
1.100000 0.200000 0.000000
1.100000 0.225000 0.000000
1.100000 0.250000 0.000000
1.100000 0.275000 0.000000
1.100000 0.300000 0.000000
1.100000 0.325000 0.000000
1.100000 0.350000 0.000000
1.100000 0.375000 0.000000
1.100000 0.400000 0.000000
1.100000 0.425000 0.000000
1.100000 0.450000 0.000000
1.100000 0.475000 0.000000
1.100000 0.500000 0.000000
1.100000 0.525000 0.000000
1.100000 0.550000 0.000000
1.100000 0.575000 0.000000
1.100000 0.600000 0.000000
</DataArray>
</Points>
<PointData>
<DataArray NumberOfComponents='1' type='Int32' Name='ParticleType' format='ascii'>
3
3
3
3
3
3
3
3
3
3
3
3
3
3
3
3
3
3
3
3
3
3
3
3
3
3
2
2
3
3
3
3
3
3
3
3
3
3
3
3
3
3
3
3
3
3
3
3
3
3
3
3
3
3
2
2
3
3
2
2
2
2
2
2
2
2
2
2
2
2
2
2
2
2
2
2
2
2
2
2
2
2
2
2
3
3
2
2
2
2
2
2
2
2
2
2
2
2
2
2
2
2
2
2
2
2
2
2
2
2
2
2
3
3
2
2
0
0
0
0
0
0
0
0
0
0
0
0
0
0
0
0
0
0
0
0
3
3
2
2
0
0
0
0
0
0
0
0
0
0
0
0
0
0
0
0
0
0
0
0
3
3
2
2
0
0
0
0
0
0
0
0
0
0
0
0
0
0
0
0
0
0
0
0
3
3
2
2
0
0
0
0
0
0
0
0
0
0
0
0
0
0
0
0
0
0
0
0
3
3
2
2
0
0
0
0
0
0
0
0
0
0
0
0
0
0
0
0
0
0
0
0
3
3
2
2
0
0
0
0
0
0
0
0
0
0
0
0
0
0
0
0
0
0
0
0
3
3
2
2
0
0
0
0
0
0
0
0
0
0
0
0
0
0
0
0
0
0
0
0
3
3
2
2
0
0
0
0
0
0
0
0
0
0
0
0
0
0
0
0
0
0
0
0
3
3
2
2
0
0
0
0
0
0
0
0
0
0
0
0
0
0
0
0
0
0
0
0
3
3
2
2
0
0
0
0
0
0
0
0
0
0
0
0
0
0
0
0
0
0
0
0
3
3
2
2
3
3
2
2
3
3
2
2
3
3
2
2
3
3
2
2
3
3
2
2
3
3
2
2
3
3
2
2
3
3
2
2
3
3
2
2
3
3
2
2
3
3
2
2
3
3
2
2
3
3
2
2
3
3
2
2
3
3
2
2
3
3
2
2
3
3
2
2
3
3
2
2
3
3
2
2
3
3
2
2
3
3
2
2
3
3
2
2
3
3
2
2
3
3
2
2
3
3
2
2
3
3
2
2
3
3
2
2
3
3
2
2
3
3
2
2
3
3
2
2
2
2
2
2
2
2
2
2
2
2
2
2
2
2
2
2
2
2
2
2
2
2
2
2
3
3
2
2
2
2
2
2
2
2
2
2
2
2
2
2
2
2
2
2
2
2
2
2
2
2
2
2
3
3
3
3
3
3
3
3
3
3
3
3
3
3
3
3
3
3
3
3
3
3
3
3
3
3
2
2
3
3
3
3
3
3
3
3
3
3
3
3
3
3
3
3
3
3
3
3
3
3
3
3
3
3
2
2
</DataArray>
<DataArray NumberOfComponents='1' type='Float32' Name='Velocity' format='ascii'>
0.000000
0.000000
0.000000
0.000000
0.000000
0.000000
0.000000
0.000000
0.000000
0.000000
0.000000
0.000000
0.000000
0.000000
0.000000
0.000000
0.000000
0.000000
0.000000
0.000000
0.000000
0.000000
0.000000
0.000000
0.000000
0.000000
0.000000
0.000000
0.000000
0.000000
0.000000
0.000000
0.000000
0.000000
0.000000
0.000000
0.000000
0.000000
0.000000
0.000000
0.000000
0.000000
0.000000
0.000000
0.000000
0.000000
0.000000
0.000000
0.000000
0.000000
0.000000
0.000000
0.000000
0.000000
0.000000
0.000000
0.000000
0.000000
0.000000
0.000000
0.000000
0.000000
0.000000
0.000000
0.000000
0.000000
0.000000
0.000000
0.000000
0.000000
0.000000
0.000000
0.000000
0.000000
0.000000
0.000000
0.000000
0.000000
0.000000
0.000000
0.000000
0.000000
0.000000
0.000000
0.000000
0.000000
0.000000
0.000000
0.000000
0.000000
0.000000
0.000000
0.000000
0.000000
0.000000
0.000000
0.000000
0.000000
0.000000
0.000000
0.000000
0.000000
0.000000
0.000000
0.000000
0.000000
0.000000
0.000000
0.000000
0.000000
0.000000
0.000000
0.000000
0.000000
0.000000
0.000000
0.457163
0.236816
0.480740
0.282981
0.423841
0.328699
0.384047
0.364130
0.322620
0.213005
0.562447
0.327654
0.518885
0.500518
0.808738
0.630302
0.733743
0.796585
0.622516
0.793330
0.000000
0.000000
0.000000
0.000000
0.110688
0.772526
0.486258
0.654866
0.725398
0.736562
0.843325
1.182246
0.281884
0.889043
0.295952
0.793703
0.301090
0.789101
0.306203
0.701348
0.460649
0.304561
0.704372
0.781613
0.000000
0.000000
0.000000
0.000000
0.155507
1.027942
0.794055
0.827439
0.771344
1.106074
1.177412
0.847574
0.833734
1.175054
0.714233
0.463546
0.470447
0.279568
0.582393
0.602821
0.383271
1.033097
0.863662
0.496789
0.000000
0.000000
0.000000
0.000000
0.805494
0.753818
0.932336
1.244181
0.254857
1.058766
1.447984
1.003283
1.194080
1.086062
0.810202
0.922519
0.947443
0.786767
0.801352
0.375734
0.935534
1.003939
1.054541
0.847993
0.000000
0.000000
0.000000
0.000000
1.293969
1.090605
1.830832
1.977960
1.741099
0.488637
1.564413
1.120625
1.552320
1.095546
1.806794
1.250270
1.162746
0.708615
0.779382
1.282136
1.473699
0.620129
1.255188
1.039349
0.000000
0.000000
0.000000
0.000000
2.371099
1.681165
2.164054
1.972554
2.365106
2.070676
2.194727
1.872793
1.914422
2.056349
1.899023
0.971800
1.907733
2.020709
1.505381
1.349673
1.304354
1.362776
1.027215
1.019896
0.000000
0.000000
0.000000
0.000000
2.249489
2.291038
2.705134
2.170860
2.484394
2.342003
2.339444
1.889247
2.075974
1.874289
1.899669
2.171099
1.700698
1.658240
1.637879
2.002790
2.018956
1.566792
1.213942
1.391057
0.000000
0.000000
0.000000
0.000000
3.325769
1.200750
2.103081
1.936437
1.189460
0.715268
1.554773
2.002693
2.548893
2.329187
2.467259
1.987568
2.512477
2.265147
1.567383
1.428245
1.859116
1.719639
1.439933
1.354123
0.000000
0.000000
0.000000
0.000000
1.148997
4.347903
0.736794
2.154075
0.830884
1.819390
1.965334
1.954974
1.033531
1.346706
1.957899
2.526489
1.739978
2.663793
2.307690
2.590653
2.269537
1.638324
1.860991
1.410653
0.000000
0.000000
0.000000
0.000000
3.615214
3.666465
2.505509
2.503356
3.836407
2.261788
3.580493
3.286488
2.363929
2.871974
1.586957
1.762337
1.895681
1.642330
1.273253
2.306892
2.472931
2.318822
2.149602
1.490653
0.000000
0.000000
0.000000
0.000000
0.000000
0.000000
0.000000
0.000000
0.000000
0.000000
0.000000
0.000000
0.000000
0.000000
0.000000
0.000000
0.000000
0.000000
0.000000
0.000000
0.000000
0.000000
0.000000
0.000000
0.000000
0.000000
0.000000
0.000000
0.000000
0.000000
0.000000
0.000000
0.000000
0.000000
0.000000
0.000000
0.000000
0.000000
0.000000
0.000000
0.000000
0.000000
0.000000
0.000000
0.000000
0.000000
0.000000
0.000000
0.000000
0.000000
0.000000
0.000000
0.000000
0.000000
0.000000
0.000000
0.000000
0.000000
0.000000
0.000000
0.000000
0.000000
0.000000
0.000000
0.000000
0.000000
0.000000
0.000000
0.000000
0.000000
0.000000
0.000000
0.000000
0.000000
0.000000
0.000000
0.000000
0.000000
0.000000
0.000000
0.000000
0.000000
0.000000
0.000000
0.000000
0.000000
0.000000
0.000000
0.000000
0.000000
0.000000
0.000000
0.000000
0.000000
0.000000
0.000000
0.000000
0.000000
0.000000
0.000000
0.000000
0.000000
0.000000
0.000000
0.000000
0.000000
0.000000
0.000000
0.000000
0.000000
0.000000
0.000000
0.000000
0.000000
0.000000
0.000000
0.000000
0.000000
0.000000
0.000000
0.000000
0.000000
0.000000
0.000000
0.000000
0.000000
0.000000
0.000000
0.000000
0.000000
0.000000
0.000000
0.000000
0.000000
0.000000
0.000000
0.000000
0.000000
0.000000
0.000000
0.000000
0.000000
0.000000
0.000000
0.000000
0.000000
0.000000
0.000000
0.000000
0.000000
0.000000
0.000000
0.000000
0.000000
0.000000
0.000000
0.000000
0.000000
0.000000
0.000000
0.000000
0.000000
0.000000
0.000000
0.000000
0.000000
0.000000
0.000000
0.000000
0.000000
0.000000
0.000000
0.000000
0.000000
0.000000
0.000000
0.000000
0.000000
0.000000
0.000000
0.000000
0.000000
0.000000
0.000000
0.000000
0.000000
0.000000
0.000000
0.000000
0.000000
0.000000
0.000000
0.000000
0.000000
0.000000
0.000000
0.000000
0.000000
0.000000
0.000000
0.000000
0.000000
0.000000
0.000000
0.000000
0.000000
0.000000
0.000000
0.000000
0.000000
0.000000
0.000000
0.000000
0.000000
0.000000
0.000000
0.000000
0.000000
0.000000
0.000000
0.000000
0.000000
0.000000
0.000000
0.000000
0.000000
0.000000
0.000000
0.000000
0.000000
0.000000
0.000000
</DataArray>
<DataArray NumberOfComponents='1' type='Float32' Name='pressure' format='ascii'>
0.000000
0.000000
0.000000
0.000000
0.000000
0.000000
0.000000
0.000000
0.000000
0.000000
0.000000
0.000000
0.000000
0.000000
0.000000
0.000000
0.000000
0.000000
0.000000
0.000000
0.000000
0.000000
0.000000
0.000000
0.000000
0.000000
0.000000
0.000000
0.000000
0.000000
0.000000
0.000000
0.000000
0.000000
0.000000
0.000000
0.000000
0.000000
0.000000
0.000000
0.000000
0.000000
0.000000
0.000000
0.000000
0.000000
0.000000
0.000000
0.000000
0.000000
0.000000
0.000000
0.000000
0.000000
0.000000
0.000000
0.000000
0.000000
1391.407593
1565.377075
2017.166626
2090.656982
1451.758667
1996.299194
0.000000
0.000000
0.000000
0.000000
0.000000
0.000000
0.000000
0.000000
0.000000
0.000000
0.000000
0.000000
0.000000
0.000000
0.000000
0.000000
0.000000
0.000000
0.000000
0.000000
0.000000
0.000000
1288.220825
1157.389526
2357.204834
2397.527344
1845.368408
1261.046509
0.000000
0.000000
0.000000
0.000000
0.000000
0.000000
0.000000
0.000000
0.000000
0.000000
0.000000
0.000000
0.000000
0.000000
0.000000
0.000000
0.000000
0.000000
0.000000
0.000000
0.000000
0.000000
615.238220
953.157410
1196.052124
1754.320435
1418.881104
1649.685669
329.114960
1089.623413
1377.738647
601.166199
95.260101
1210.193481
460.413574
1455.431641
24.252295
894.288269
455.169952
470.203644
1638.070679
249.134903
0.000000
0.000000
0.000000
0.000000
1773.563843
2323.179932
3084.183350
1798.817139
507.488373
902.167297
1796.717651
1658.081299
1438.975098
0.000000
2518.239990
1331.064209
0.000000
1600.161377
1405.664795
0.000000
527.810425
228.945755
428.395630
0.000000
580.900269
0.000000
0.000000
0.000000
518.874878
647.473267
1098.560547
581.682495
1813.785156
1637.776978
266.767517
1091.105713
0.000000
699.299194
0.000000
0.000000
0.000000
0.000000
694.155945
783.023132
795.735168
740.570312
0.000000
0.000000
0.000000
0.000000
0.000000
0.000000
1384.937622
0.000000
0.000000
0.000000
0.000000
0.000000
0.000000
1131.852417
1459.907593
1230.657959
654.478638
0.000000
1410.937134
1646.151123
0.000000
540.055298
689.328064
541.799683
0.000000
116.156998
0.000000
1311.177124
0.000000
0.000000
2861.360840
106.574417
264.628143
1176.985474
1541.693848
0.000000
0.000000
0.000000
3139.354736
1343.124756
649.766357
1169.760376
3959.336182
11.568437
247.792770
0.000000
0.000000
0.000000
0.000000
0.000000
0.000000
0.000000
0.000000
0.000000
4557.083008
2970.294678
331.571228
0.000000
0.000000
0.000000
831.619446
122.171494
2277.649902
1145.179565
0.000000
2067.800049
1645.875732
1076.115723
2081.600586
0.000000
0.000000
2447.833740
0.000000
0.000000
0.000000
398.041321
0.000000
0.000000
3694.415771
613.976562
0.000000
2040.202026
979.688843
847.340698
0.000000
0.000000
1749.035522
878.867798
0.000000
0.000000
0.000000
0.000000
14.870385
0.000000
1277.882568
0.000000
0.000000
0.000000
0.000000
0.000000
0.000000
0.000000
3919.423340
2173.458740
0.000000
2310.960449
285.673859
1893.626953
6077.793945
3327.270996
1678.746460
178.343369
556.439453
0.000000
0.000000
2605.625732
0.000000
0.000000
0.000000
0.000000
0.000000
1120.008911
0.000000
0.000000
0.000000
0.000000
2851.778809
172.976364
0.000000
0.000000
3702.621826
1995.886719
1933.784546
2263.487061
5147.521484
0.000000
1545.276245
4342.923828
3060.799561
0.000000
0.000000
0.000000
0.000000
0.000000
0.000000
0.000000
0.000000
0.000000
0.000000
0.000000
3221.257080
2758.616699
0.000000
0.000000
0.000000
6298.504883
0.000000
0.000000
0.000000
0.000000
0.000000
3629.263184
0.000000
0.000000
4337.283691
0.000000
0.000000
0.000000
0.000000
0.000000
0.000000
0.000000
0.000000
0.000000
2692.443604
2020.366699
0.000000
0.000000
1771.308105
267.649200
0.000000
0.000000
2198.404541
0.000000
0.000000
0.000000
3233.612061
1170.956421
0.000000
0.000000
3763.339111
2180.415039
0.000000
0.000000
3050.755371
2938.456787
0.000000
0.000000
3457.258301
3714.858887
0.000000
0.000000
1570.137817
0.000000
0.000000
0.000000
2301.684326
766.717163
0.000000
0.000000
2753.911377
4190.426270
0.000000
0.000000
1754.334839
1652.204224
0.000000
0.000000
1516.661133
0.000000
0.000000
0.000000
1465.541992
136.069092
0.000000
0.000000
563.852722
40.033092
0.000000
0.000000
1646.861694
1740.083984
0.000000
0.000000
2705.140381
2329.844727
0.000000
0.000000
896.671204
0.000000
0.000000
0.000000
0.000000
137.708038
0.000000
0.000000
935.852966
1797.371460
0.000000
0.000000
1232.347534
2682.859131
0.000000
0.000000
532.043030
472.563141
0.000000
0.000000
887.079163
1009.275146
0.000000
0.000000
276.096069
0.000000
0.000000
0.000000
0.000000
572.080811
0.000000
0.000000
260.352051
0.000000
0.000000
0.000000
0.000000
0.000000
0.000000
0.000000
1398.979248
1517.133545
0.000000
0.000000
2052.929443
1021.010803
0.000000
0.000000
1546.713623
0.000000
0.000000
0.000000
3780.965088
3065.899170
0.000000
0.000000
4673.050293
6637.473633
6507.837891
0.000000
2672.540283
6496.153320
10999.573242
1449.994141
0.000000
0.000000
0.000000
0.000000
0.000000
0.000000
0.000000
0.000000
0.000000
0.000000
0.000000
0.000000
0.000000
0.000000
0.000000
0.000000
0.000000
0.000000
0.000000
0.000000
5238.575684
5521.391602
6157.820801
3708.978516
4838.872559
5386.816406
7513.437500
4094.350830
512.003113
0.000000
0.000000
0.000000
0.000000
0.000000
0.000000
0.000000
2157.861328
1145.532837
0.000000
0.000000
0.000000
0.000000
0.000000
0.000000
0.000000
0.000000
0.000000
0.000000
0.000000
0.000000
0.000000
0.000000
0.000000
0.000000
0.000000
0.000000
0.000000
0.000000
0.000000
0.000000
0.000000
0.000000
0.000000
0.000000
0.000000
0.000000
0.000000
0.000000
0.000000
0.000000
0.000000
0.000000
0.000000
0.000000
0.000000
0.000000
0.000000
0.000000
0.000000
0.000000
0.000000
0.000000
0.000000
0.000000
0.000000
0.000000
0.000000
0.000000
0.000000
0.000000
0.000000
0.000000
0.000000
0.000000
0.000000
0.000000
0.000000
0.000000
0.000000
0.000000
0.000000
0.000000
</DataArray>
</PointData>
<Cells>
<DataArray type='Int32' Name='connectivity' format='ascii'>
0
1
2
3
4
5
6
7
8
9
10
11
12
13
14
15
16
17
18
19
20
21
22
23
24
25
26
27
28
29
30
31
32
33
34
35
36
37
38
39
40
41
42
43
44
45
46
47
48
49
50
51
52
53
54
55
56
57
58
59
60
61
62
63
64
65
66
67
68
69
70
71
72
73
74
75
76
77
78
79
80
81
82
83
84
85
86
87
88
89
90
91
92
93
94
95
96
97
98
99
100
101
102
103
104
105
106
107
108
109
110
111
112
113
114
115
116
117
118
119
120
121
122
123
124
125
126
127
128
129
130
131
132
133
134
135
136
137
138
139
140
141
142
143
144
145
146
147
148
149
150
151
152
153
154
155
156
157
158
159
160
161
162
163
164
165
166
167
168
169
170
171
172
173
174
175
176
177
178
179
180
181
182
183
184
185
186
187
188
189
190
191
192
193
194
195
196
197
198
199
200
201
202
203
204
205
206
207
208
209
210
211
212
213
214
215
216
217
218
219
220
221
222
223
224
225
226
227
228
229
230
231
232
233
234
235
236
237
238
239
240
241
242
243
244
245
246
247
248
249
250
251
252
253
254
255
256
257
258
259
260
261
262
263
264
265
266
267
268
269
270
271
272
273
274
275
276
277
278
279
280
281
282
283
284
285
286
287
288
289
290
291
292
293
294
295
296
297
298
299
300
301
302