<?xml version='1.0' encoding='UTF-8'?>
<VTKFile xmlns='VTK' byte_order='LittleEndian' version='0.1' type='UnstructuredGrid'>
<UnstructuredGrid>
<Piece NumberOfCells='584' NumberOfPoints='584'>
<Points>
<DataArray NumberOfComponents='3' type='Float32' Name='Position' format='ascii'>
-0.075000 -0.075000 0.000000
-0.075000 -0.050000 0.000000
-0.075000 -0.025000 0.000000
-0.075000 0.000000 0.000000
-0.075000 0.025000 0.000000
-0.075000 0.050000 0.000000
-0.075000 0.075000 0.000000
-0.075000 0.100000 0.000000
-0.075000 0.125000 0.000000
-0.075000 0.150000 0.000000
-0.075000 0.175000 0.000000
-0.075000 0.200000 0.000000
-0.075000 0.225000 0.000000
-0.075000 0.250000 0.000000
-0.075000 0.275000 0.000000
-0.075000 0.300000 0.000000
-0.075000 0.325000 0.000000
-0.075000 0.350000 0.000000
-0.075000 0.375000 0.000000
-0.075000 0.400000 0.000000
-0.075000 0.425000 0.000000
-0.075000 0.450000 0.000000
-0.075000 0.475000 0.000000
-0.075000 0.500000 0.000000
-0.075000 0.525000 0.000000
-0.075000 0.550000 0.000000
-0.075000 0.575000 0.000000
-0.075000 0.600000 0.000000
-0.050000 -0.075000 0.000000
-0.050000 -0.050000 0.000000
-0.050000 -0.025000 0.000000
-0.050000 0.000000 0.000000
-0.050000 0.025000 0.000000
-0.050000 0.050000 0.000000
-0.050000 0.075000 0.000000
-0.050000 0.100000 0.000000
-0.050000 0.125000 0.000000
-0.050000 0.150000 0.000000
-0.050000 0.175000 0.000000
-0.050000 0.200000 0.000000
-0.050000 0.225000 0.000000
-0.050000 0.250000 0.000000
-0.050000 0.275000 0.000000
-0.050000 0.300000 0.000000
-0.050000 0.325000 0.000000
-0.050000 0.350000 0.000000
-0.050000 0.375000 0.000000
-0.050000 0.400000 0.000000
-0.050000 0.425000 0.000000
-0.050000 0.450000 0.000000
-0.050000 0.475000 0.000000
-0.050000 0.500000 0.000000
-0.050000 0.525000 0.000000
-0.050000 0.550000 0.000000
-0.050000 0.575000 0.000000
-0.050000 0.600000 0.000000
-0.025000 -0.075000 0.000000
-0.025000 -0.050000 0.000000
-0.025000 -0.025000 0.000000
-0.025000 0.000000 0.000000
-0.025000 0.025000 0.000000
-0.025000 0.050000 0.000000
-0.025000 0.075000 0.000000
-0.025000 0.100000 0.000000
-0.025000 0.125000 0.000000
-0.025000 0.150000 0.000000
-0.025000 0.175000 0.000000
-0.025000 0.200000 0.000000
-0.025000 0.225000 0.000000
-0.025000 0.250000 0.000000
-0.025000 0.275000 0.000000
-0.025000 0.300000 0.000000
-0.025000 0.325000 0.000000
-0.025000 0.350000 0.000000
-0.025000 0.375000 0.000000
-0.025000 0.400000 0.000000
-0.025000 0.425000 0.000000
-0.025000 0.450000 0.000000
-0.025000 0.475000 0.000000
-0.025000 0.500000 0.000000
-0.025000 0.525000 0.000000
-0.025000 0.550000 0.000000
-0.025000 0.575000 0.000000
-0.025000 0.600000 0.000000
0.000000 -0.075000 0.000000
0.000000 -0.050000 0.000000
0.000000 -0.025000 0.000000
0.000000 0.000000 0.000000
0.000000 0.025000 0.000000
0.000000 0.050000 0.000000
0.000000 0.075000 0.000000
0.000000 0.100000 0.000000
0.000000 0.125000 0.000000
0.000000 0.150000 0.000000
0.000000 0.175000 0.000000
0.000000 0.200000 0.000000
0.000000 0.225000 0.000000
0.000000 0.250000 0.000000
0.000000 0.275000 0.000000
0.000000 0.300000 0.000000
0.000000 0.325000 0.000000
0.000000 0.350000 0.000000
0.000000 0.375000 0.000000
0.000000 0.400000 0.000000
0.000000 0.425000 0.000000
0.000000 0.450000 0.000000
0.000000 0.475000 0.000000
0.000000 0.500000 0.000000
0.000000 0.525000 0.000000
0.000000 0.550000 0.000000
0.000000 0.575000 0.000000
0.000000 0.600000 0.000000
0.025000 -0.075000 0.000000
0.025000 -0.050000 0.000000
0.025000 -0.025000 0.000000
0.025000 0.000000 0.000000
0.151587 0.046144 0.000000
0.165412 0.154209 0.000000
0.152992 0.023130 0.000000
0.179087 0.026244 0.000000
0.217644 0.047329 0.000000
0.110689 0.122820 0.000000
0.280829 0.025431 0.000000
0.187505 0.047836 0.000000
0.167714 0.088980 0.000000
0.072481 0.259234 0.000000
0.202494 0.025562 0.000000
0.067461 0.158485 0.000000
0.118221 0.021876 0.000000
0.090845 0.026071 0.000000
0.129705 0.150087 0.000000
0.072525 0.048736 0.000000
0.061849 0.193139 0.000000
0.066043 0.023605 0.000000
0.038077 0.209416 0.000000
0.125441 0.042113 0.000000
0.050000 -0.075000 0.000000
0.050000 -0.050000 0.000000
0.050000 -0.025000 0.000000
0.050000 0.000000 0.000000
0.115249 0.220683 0.000000
0.064420 0.137039 0.000000
0.046444 0.237807 0.000000
0.022521 0.024567 0.000000
0.026124 0.149574 0.000000
0.428791 0.054914 0.000000
0.164201 0.130599 0.000000
0.560066 0.030458 0.000000
0.099860 0.184419 0.000000
0.191527 0.197398 0.000000
0.091445 0.098011 0.000000
0.204369 0.117529 0.000000
0.028732 0.272818 0.000000
0.142920 0.214316 0.000000
0.086304 0.079875 0.000000
0.024284 0.063179 0.000000
0.188069 0.107042 0.000000
0.214585 0.095544 0.000000
0.088859 0.285026 0.000000
0.058558 0.072189 0.000000
0.075000 -0.075000 0.000000
0.075000 -0.050000 0.000000
0.075000 -0.025000 0.000000
0.075000 0.000000 0.000000
0.104242 0.142122 0.000000
0.153094 0.107404 0.000000
0.373906 0.051161 0.000000
0.312245 0.022584 0.000000
0.384401 0.098561 0.000000
0.648606 0.035944 0.000000
0.642186 0.063385 0.000000
0.045977 0.119881 0.000000
0.316938 0.128808 0.000000
0.620487 0.071711 0.000000
0.413422 0.024511 0.000000
0.083592 0.124493 0.000000
0.189517 0.079597 0.000000
0.183461 0.143199 0.000000
0.232053 0.086520 0.000000
0.044016 0.099367 0.000000
0.131600 0.099755 0.000000
0.045986 0.055646 0.000000
0.145075 0.069668 0.000000
0.113876 0.061851 0.000000
0.100000 -0.075000 0.000000
0.100000 -0.050000 0.000000
0.100000 -0.025000 0.000000
0.100000 0.000000 0.000000
0.458171 0.022849 0.000000
0.275547 0.152366 0.000000
0.473316 0.037715 0.000000
0.783966 0.021752 0.000000
0.213019 0.069569 0.000000
0.714115 0.021245 0.000000
0.592037 0.091824 0.000000
0.241565 0.048401 0.000000
0.670588 0.021018 0.000000
0.673529 0.051329 0.000000
0.433744 0.030621 0.000000
0.290714 0.148272 0.000000
0.520375 0.048644 0.000000
0.606916 0.025889 0.000000
0.064848 0.228475 0.000000
0.228835 0.024296 0.000000
0.514741 0.026509 0.000000
0.252896 0.066395 0.000000
0.308623 0.084714 0.000000
0.172750 0.187541 0.000000
0.125000 -0.075000 0.000000
0.125000 -0.050000 0.000000
0.125000 -0.025000 0.000000
0.125000 0.000000 0.000000
0.697370 0.071548 0.000000
0.657500 0.083205 0.000000
0.986387 0.056779 0.000000
0.826771 0.022446 0.000000
0.537966 0.063973 0.000000
0.586025 0.024294 0.000000
0.160214 0.198135 0.000000
0.452600 0.057342 0.000000
0.755211 0.073280 0.000000
0.724683 0.058303 0.000000
0.852904 0.050071 0.000000
0.471002 0.065895 0.000000
0.492693 0.023887 0.000000
0.431631 0.126500 0.000000
0.387356 0.024896 0.000000
0.395380 0.131610 0.000000
0.257108 0.156112 0.000000
0.118590 0.086886 0.000000
0.431735 0.111534 0.000000
0.044226 0.162029 0.000000
0.150000 -0.075000 0.000000
0.150000 -0.050000 0.000000
0.150000 -0.025000 0.000000
0.150000 0.000000 0.000000
0.189341 0.165510 0.000000
0.961587 0.029547 0.000000
0.714459 0.095301 0.000000
0.273047 0.047173 0.000000
0.878623 0.026276 0.000000
0.166783 0.063076 0.000000
0.914972 0.041250 0.000000
0.409666 0.077582 0.000000
0.936858 0.051997 0.000000
0.499137 0.091964 0.000000
0.908805 0.101783 0.000000
0.688188 0.036325 0.000000
0.825127 0.067755 0.000000
0.802915 0.062639 0.000000
0.760431 0.032364 0.000000
0.614885 0.050683 0.000000
0.631682 0.025282 0.000000
0.637221 0.087582 0.000000
0.673597 0.073053 0.000000
0.218851 0.132686 0.000000
0.175000 -0.075000 0.000000
0.175000 -0.050000 0.000000
0.175000 -0.025000 0.000000
0.175000 0.000000 0.000000
0.092603 0.159866 0.000000
0.584262 0.102464 0.000000
0.885242 0.046638 0.000000
0.798059 0.095851 0.000000
0.992372 0.020352 0.000000
0.159724 0.247291 0.000000
0.852794 0.027530 0.000000
0.325064 0.042724 0.000000
0.364698 0.025396 0.000000
0.907200 0.022094 0.000000
0.488960 0.080493 0.000000
0.732703 0.076427 0.000000
0.361850 0.092810 0.000000
0.941615 0.021628 0.000000
0.973780 0.049680 0.000000
0.402451 0.049977 0.000000
1.000242 0.043868 0.000000
0.457031 0.103194 0.000000
0.130663 0.189663 0.000000
0.382807 0.127606 0.000000
0.200000 -0.075000 0.000000
0.200000 -0.050000 0.000000
0.200000 -0.025000 0.000000
0.200000 0.000000 0.000000
0.327721 0.094518 0.000000
0.094885 0.051175 0.000000
0.263570 0.099357 0.000000
0.800788 0.035815 0.000000
0.337875 0.059392 0.000000
0.255226 0.127822 0.000000
0.583280 0.052505 0.000000
0.941369 0.064832 0.000000
0.366528 0.115515 0.000000
0.027983 0.173340 0.000000
0.779287 0.069316 0.000000
0.695582 0.109402 0.000000
0.042754 0.031835 0.000000
0.436233 0.078089 0.000000
0.555358 0.059699 0.000000
0.097180 0.259117 0.000000
0.714250 0.042998 0.000000
0.340939 0.145842 0.000000
0.870949 0.059614 0.000000
0.708581 0.108060 0.000000
0.225000 -0.075000 0.000000
0.225000 -0.050000 0.000000
0.225000 -0.025000 0.000000
0.225000 0.000000 0.000000
0.272116 0.077395 0.000000
0.821177 0.044575 0.000000
0.544840 0.081433 0.000000
0.171322 0.235287 0.000000
0.023778 0.232225 0.000000
0.111151 0.199516 0.000000
0.418031 0.095375 0.000000
0.906523 0.066814 0.000000
0.585321 0.068704 0.000000
0.074154 0.189586 0.000000
0.617262 0.106193 0.000000
0.119333 0.399715 0.000000
0.340265 0.025408 0.000000
0.385229 0.067285 0.000000
0.066734 0.098173 0.000000
0.213566 0.174229 0.000000
0.501787 0.056312 0.000000
0.021190 0.087944 0.000000
0.247858 0.112844 0.000000
0.296761 0.046136 0.000000
0.250000 -0.075000 0.000000
0.250000 -0.050000 0.000000
0.250000 -0.025000 0.000000
0.250000 0.000000 0.000000
0.743433 0.025446 0.000000
0.308982 0.142518 0.000000
0.241785 0.161279 0.000000
0.286210 0.101874 0.000000
0.256408 0.023702 0.000000
0.340912 0.104129 0.000000
0.142631 0.163919 0.000000
0.253409 0.205773 0.000000
0.242144 0.190993 0.000000
0.470312 0.098293 0.000000
0.217595 0.157598 0.000000
0.042338 0.256095 0.000000
0.137199 0.126895 0.000000
0.542828 0.024747 0.000000
0.354214 0.067335 0.000000
0.298989 0.068881 0.000000
0.294541 0.121353 0.000000
0.763909 0.055206 0.000000
0.024048 0.124029 0.000000
0.502343 0.134298 0.000000
0.275000 -0.075000 0.000000
0.275000 -0.050000 0.000000
0.275000 -0.025000 0.000000
0.275000 0.000000 0.000000
0.300000 -0.075000 0.000000
0.300000 -0.050000 0.000000
0.300000 -0.025000 0.000000
0.300000 0.000000 0.000000
0.325000 -0.075000 0.000000
0.325000 -0.050000 0.000000
0.325000 -0.025000 0.000000
0.325000 0.000000 0.000000
0.350000 -0.075000 0.000000
0.350000 -0.050000 0.000000
0.350000 -0.025000 0.000000
0.350000 0.000000 0.000000
0.375000 -0.075000 0.000000
0.375000 -0.050000 0.000000
0.375000 -0.025000 0.000000
0.375000 0.000000 0.000000
0.400000 -0.075000 0.000000
0.400000 -0.050000 0.000000
0.400000 -0.025000 0.000000
0.400000 0.000000 0.000000
0.425000 -0.075000 0.000000
0.425000 -0.050000 0.000000
0.425000 -0.025000 0.000000
0.425000 0.000000 0.000000
0.450000 -0.075000 0.000000
0.450000 -0.050000 0.000000
0.450000 -0.025000 0.000000
0.450000 0.000000 0.000000
0.475000 -0.075000 0.000000
0.475000 -0.050000 0.000000
0.475000 -0.025000 0.000000
0.475000 0.000000 0.000000
0.500000 -0.075000 0.000000
0.500000 -0.050000 0.000000
0.500000 -0.025000 0.000000
0.500000 0.000000 0.000000
0.525000 -0.075000 0.000000
0.525000 -0.050000 0.000000
0.525000 -0.025000 0.000000
0.525000 0.000000 0.000000
0.550000 -0.075000 0.000000
0.550000 -0.050000 0.000000
0.550000 -0.025000 0.000000
0.550000 0.000000 0.000000
0.575000 -0.075000 0.000000
0.575000 -0.050000 0.000000
0.575000 -0.025000 0.000000
0.575000 0.000000 0.000000
0.600000 -0.075000 0.000000
0.600000 -0.050000 0.000000
0.600000 -0.025000 0.000000
0.600000 0.000000 0.000000
0.625000 -0.075000 0.000000
0.625000 -0.050000 0.000000
0.625000 -0.025000 0.000000
0.625000 0.000000 0.000000
0.650000 -0.075000 0.000000
0.650000 -0.050000 0.000000
0.650000 -0.025000 0.000000
0.650000 0.000000 0.000000
0.675000 -0.075000 0.000000
0.675000 -0.050000 0.000000
0.675000 -0.025000 0.000000
0.675000 0.000000 0.000000
0.700000 -0.075000 0.000000
0.700000 -0.050000 0.000000
0.700000 -0.025000 0.000000
0.700000 0.000000 0.000000
0.725000 -0.075000 0.000000
0.725000 -0.050000 0.000000
0.725000 -0.025000 0.000000
0.725000 0.000000 0.000000
0.750000 -0.075000 0.000000
0.750000 -0.050000 0.000000
0.750000 -0.025000 0.000000
0.750000 0.000000 0.000000
0.775000 -0.075000 0.000000
0.775000 -0.050000 0.000000
0.775000 -0.025000 0.000000
0.775000 0.000000 0.000000
0.800000 -0.075000 0.000000
0.800000 -0.050000 0.000000
0.800000 -0.025000 0.000000
0.800000 0.000000 0.000000
0.825000 -0.075000 0.000000
0.825000 -0.050000 0.000000
0.825000 -0.025000 0.000000
0.825000 0.000000 0.000000
0.850000 -0.075000 0.000000
0.850000 -0.050000 0.000000
0.850000 -0.025000 0.000000
0.850000 0.000000 0.000000
0.875000 -0.075000 0.000000
0.875000 -0.050000 0.000000
0.875000 -0.025000 0.000000
0.875000 0.000000 0.000000
0.900000 -0.075000 0.000000
0.900000 -0.050000 0.000000
0.900000 -0.025000 0.000000
0.900000 0.000000 0.000000
0.925000 -0.075000 0.000000
0.925000 -0.050000 0.000000
0.925000 -0.025000 0.000000
0.925000 0.000000 0.000000
0.950000 -0.075000 0.000000
0.950000 -0.050000 0.000000
0.950000 -0.025000 0.000000
0.950000 0.000000 0.000000
0.975000 -0.075000 0.000000
0.975000 -0.050000 0.000000
0.975000 -0.025000 0.000000
0.975000 0.000000 0.000000
1.000000 -0.075000 0.000000
1.000000 -0.050000 0.000000
1.000000 -0.025000 0.000000
1.000000 0.000000 0.000000
1.025000 -0.075000 0.000000
1.025000 -0.050000 0.000000
1.025000 -0.025000 0.000000
1.025000 0.000000 0.000000
1.025000 0.025000 0.000000
1.025000 0.050000 0.000000
1.025000 0.075000 0.000000
1.025000 0.100000 0.000000
1.025000 0.125000 0.000000
1.025000 0.150000 0.000000
1.025000 0.175000 0.000000
1.025000 0.200000 0.000000
1.025000 0.225000 0.000000
1.025000 0.250000 0.000000
1.025000 0.275000 0.000000
1.025000 0.300000 0.000000
1.025000 0.325000 0.000000
1.025000 0.350000 0.000000
1.025000 0.375000 0.000000
1.025000 0.400000 0.000000
1.025000 0.425000 0.000000
1.025000 0.450000 0.000000
1.025000 0.475000 0.000000
1.025000 0.500000 0.000000
1.025000 0.525000 0.000000
1.025000 0.550000 0.000000
1.025000 0.575000 0.000000
1.025000 0.600000 0.000000
1.050000 -0.075000 0.000000
1.050000 -0.050000 0.000000
1.050000 -0.025000 0.000000
1.050000 0.000000 0.000000
1.050000 0.025000 0.000000
1.050000 0.050000 0.000000
1.050000 0.075000 0.000000
1.050000 0.100000 0.000000
1.050000 0.125000 0.000000
1.050000 0.150000 0.000000
1.050000 0.175000 0.000000
1.050000 0.200000 0.000000
1.050000 0.225000 0.000000
1.050000 0.250000 0.000000
1.050000 0.275000 0.000000
1.050000 0.300000 0.000000
1.050000 0.325000 0.000000
1.050000 0.350000 0.000000
1.050000 0.375000 0.000000
1.050000 0.400000 0.000000
1.050000 0.425000 0.000000
1.050000 0.450000 0.000000
1.050000 0.475000 0.000000
1.050000 0.500000 0.000000
1.050000 0.525000 0.000000
1.050000 0.550000 0.000000
1.050000 0.575000 0.000000
1.050000 0.600000 0.000000
1.075000 -0.075000 0.000000
1.075000 -0.050000 0.000000
1.075000 -0.025000 0.000000
1.075000 0.000000 0.000000
1.075000 0.025000 0.000000
1.075000 0.050000 0.000000
1.075000 0.075000 0.000000
1.075000 0.100000 0.000000
1.075000 0.125000 0.000000
1.075000 0.150000 0.000000
1.075000 0.175000 0.000000
1.075000 0.200000 0.000000
1.075000 0.225000 0.000000
1.075000 0.250000 0.000000
1.075000 0.275000 0.000000
1.075000 0.300000 0.000000
1.075000 0.325000 0.000000
1.075000 0.350000 0.000000
1.075000 0.375000 0.000000
1.075000 0.400000 0.000000
1.075000 0.425000 0.000000
1.075000 0.450000 0.000000
1.075000 0.475000 0.000000
1.075000 0.500000 0.000000
1.075000 0.525000 0.000000
1.075000 0.550000 0.000000
1.075000 0.575000 0.000000
1.075000 0.600000 0.000000
1.100000 -0.075000 0.000000
1.100000 -0.050000 0.000000
1.100000 -0.025000 0.000000
1.100000 0.000000 0.000000
1.100000 0.025000 0.000000
1.100000 0.050000 0.000000
1.100000 0.075000 0.000000
1.100000 0.100000 0.000000
1.100000 0.125000 0.000000
1.100000 0.150000 0.000000
1.100000 0.175000 0.000000
1.100000 0.200000 0.000000
1.100000 0.225000 0.000000
1.100000 0.250000 0.000000
1.100000 0.275000 0.000000
1.100000 0.300000 0.000000
1.100000 0.325000 0.000000
1.100000 0.350000 0.000000
1.100000 0.375000 0.000000
1.100000 0.400000 0.000000
1.100000 0.425000 0.000000
1.100000 0.450000 0.000000
1.100000 0.475000 0.000000
1.100000 0.500000 0.000000
1.100000 0.525000 0.000000
1.100000 0.550000 0.000000
1.100000 0.575000 0.000000
1.100000 0.600000 0.000000
</DataArray>
</Points>
<PointData>
<DataArray NumberOfComponents='1' type='Int32' Name='ParticleType' format='ascii'>
3
3
3
3
3
3
3
3
3
3
3
3
3
3
3
3
3
3
3
3
3
3
3
3
3
3
2
2
3
3
3
3
3
3
3
3
3
3
3
3
3
3
3
3
3
3
3
3
3
3
3
3
3
3
2
2
3
3
2
2
2
2
2
2
2
2
2
2
2
2
2
2
2
2
2
2
2
2
2
2
2
2
2
2
3
3
2
2
2
2
2
2
2
2
2
2
2
2
2
2
2
2
2
2
2
2
2
2
2
2
2
2
3
3
2
2
0
0
0
0
0
0
0
0
0
0
0
0
0
0
0
0
0
0
0
0
3
3
2
2
0
0
0
0
0
0
0
0
0
0
0
0
0
0
0
0
0
0
0
0
3
3
2
2
0
0
0
0
0
0
0
0
0
0
0
0
0
0
0
0
0
0
0
0
3
3
2
2
0
0
0
0
0
0
0
0
0
0
0
0
0
0
0
0
0
0
0
0
3
3
2
2
0
0
0
0
0
0
0
0
0
0
0
0
0
0
0
0
0
0
0
0
3
3
2
2
0
0
0
0
0
0
0
0
0
0
0
0
0
0
0
0
0
0
0
0
3
3
2
2
0
0
0
0
0
0
0
0
0
0
0
0
0
0
0
0
0
0
0
0
3
3
2
2
0
0
0
0
0
0
0
0
0
0
0
0
0
0
0
0
0
0
0
0
3
3
2
2
0
0
0
0
0
0
0
0
0
0
0
0
0
0
0
0
0
0
0
0
3
3
2
2
0
0
0
0
0
0
0
0
0
0
0
0
0
0
0
0
0
0
0
0
3
3
2
2
3
3
2
2
3
3
2
2
3
3
2
2
3
3
2
2
3
3
2
2
3
3
2
2
3
3
2
2
3
3
2
2
3
3
2
2
3
3
2
2
3
3
2
2
3
3
2
2
3
3
2
2
3
3
2
2
3
3
2
2
3
3
2
2
3
3
2
2
3
3
2
2
3
3
2
2
3
3
2
2
3
3
2
2
3
3
2
2
3
3
2
2
3
3
2
2
3
3
2
2
3
3
2
2
3
3
2
2
3
3
2
2
3
3
2
2
3
3
2
2
2
2
2
2
2
2
2
2
2
2
2
2
2
2
2
2
2
2
2
2
2
2
2
2
3
3
2
2
2
2
2
2
2
2
2
2
2
2
2
2
2
2
2
2
2
2
2
2
2
2
2
2
3
3
3
3
3
3
3
3
3
3
3
3
3
3
3
3
3
3
3
3
3
3
3
3
3
3
2
2
3
3
3
3
3
3
3
3
3
3
3
3
3
3
3
3
3
3
3
3
3
3
3
3
3
3
2
2
</DataArray>
<DataArray NumberOfComponents='1' type='Float32' Name='Velocity' format='ascii'>
0.000000
0.000000
0.000000
0.000000
0.000000
0.000000
0.000000
0.000000
0.000000
0.000000
0.000000
0.000000
0.000000
0.000000
0.000000
0.000000
0.000000
0.000000
0.000000
0.000000
0.000000
0.000000
0.000000
0.000000
0.000000
0.000000
0.000000
0.000000
0.000000
0.000000
0.000000
0.000000
0.000000
0.000000
0.000000
0.000000
0.000000
0.000000
0.000000
0.000000
0.000000
0.000000
0.000000
0.000000
0.000000
0.000000
0.000000
0.000000
0.000000
0.000000
0.000000
0.000000
0.000000
0.000000
0.000000
0.000000
0.000000
0.000000
0.000000
0.000000
0.000000
0.000000
0.000000
0.000000
0.000000
0.000000
0.000000
0.000000
0.000000
0.000000
0.000000
0.000000
0.000000
0.000000
0.000000
0.000000
0.000000
0.000000
0.000000
0.000000
0.000000
0.000000
0.000000
0.000000
0.000000
0.000000
0.000000
0.000000
0.000000
0.000000
0.000000
0.000000
0.000000
0.000000
0.000000
0.000000
0.000000
0.000000
0.000000
0.000000
0.000000
0.000000
0.000000
0.000000
0.000000
0.000000
0.000000
0.000000
0.000000
0.000000
0.000000
0.000000
0.000000
0.000000
0.000000
0.000000
0.547887
0.517401
0.125364
0.213639
0.092519
0.179579
0.096179
0.321965
0.199183
0.850861
0.144968
0.470469
0.375982
0.351655
0.523463
0.274470
0.162057
0.104839
0.684617
0.493550
0.000000
0.000000
0.000000
0.000000
0.212063
0.099821
0.701972
0.178372
0.151156
0.087768
0.376616
0.276873
0.426315
0.380619
0.114345
0.096768
0.451762
0.502658
0.656063
0.143953
0.107089
0.143708
0.845633
0.429331
0.000000
0.000000
0.000000
0.000000
0.255531
0.280209
0.380659
0.048684
0.395777
0.458983
0.625817
0.260003
0.711068
0.648190
0.204317
0.357029
0.399416
0.254299
0.074436
0.053208
0.101468
0.049810
0.369113
0.314084
0.000000
0.000000
0.000000
0.000000
0.085734
0.395806
0.148085
0.137992
0.058827
0.322591
0.539196
0.178770
0.218385
0.417048
0.110213
0.180978
0.423994
0.097539
0.327736
0.051927
0.212887
0.240116
0.279042
0.767172
0.000000
0.000000
0.000000
0.000000
0.225674
0.666293
0.055515
0.131873
0.171049
0.164191
0.512717
0.690319
0.325484
0.199181
0.268578
0.452305
0.079284
0.821225
0.151154
0.423075
0.619076
0.296761
0.757020
0.172946
0.000000
0.000000
0.000000
0.000000
0.715546
0.317647
0.685627
0.186080
0.237636
0.112565
0.239725
0.130818
0.095167
0.542907
0.485089
0.145442
0.147871
0.166330
0.251057
0.283984
0.096832
0.532953
0.054511
0.216396
0.000000
0.000000
0.000000
0.000000
0.268493
0.706643
0.087041
0.554878
0.063979
0.741984
0.091745
0.121123
0.265664
0.173645
0.606730
0.367475
0.498394
0.044998
0.074416
0.060279
0.197863
0.449266
0.441902
0.431109
0.000000
0.000000
0.000000
0.000000
0.221715
0.303774
0.077762
0.246716
0.159391
0.484448
0.315263
0.092040
0.611666
0.673703
0.082438
0.535067
0.060592
0.555484
0.326618
0.463934
0.100177
0.322967
0.200495
0.259635
0.000000
0.000000
0.000000
0.000000
0.107680
0.170858
0.533187
0.856304
0.721004
0.328467
0.233702
0.407946
0.572170
0.242412
1.077979
0.682137
0.221849
0.304624
0.204083
0.460957
0.382799
0.552413
0.501759
0.097814
0.000000
0.000000
0.000000
0.000000
0.082319
0.748446
0.602129
0.474319
0.117202
0.782029
0.354971
0.152799
0.320061
0.361363
0.620493
0.219762
0.386090
0.080473
0.294131
0.076903
0.485261
0.134779
0.234461
0.397154
0.000000
0.000000
0.000000
0.000000
0.000000
0.000000
0.000000
0.000000
0.000000
0.000000
0.000000
0.000000
0.000000
0.000000
0.000000
0.000000
0.000000
0.000000
0.000000
0.000000
0.000000
0.000000
0.000000
0.000000
0.000000
0.000000
0.000000
0.000000
0.000000
0.000000
0.000000
0.000000
0.000000
0.000000
0.000000
0.000000
0.000000
0.000000
0.000000
0.000000
0.000000
0.000000
0.000000
0.000000
0.000000
0.000000
0.000000
0.000000
0.000000
0.000000
0.000000
0.000000
0.000000
0.000000
0.000000
0.000000
0.000000
0.000000
0.000000
0.000000
0.000000
0.000000
0.000000
0.000000
0.000000
0.000000
0.000000
0.000000
0.000000
0.000000
0.000000
0.000000
0.000000
0.000000
0.000000
0.000000
0.000000
0.000000
0.000000
0.000000
0.000000
0.000000
0.000000
0.000000
0.000000
0.000000
0.000000
0.000000
0.000000
0.000000
0.000000
0.000000
0.000000
0.000000
0.000000
0.000000
0.000000
0.000000
0.000000
0.000000
0.000000
0.000000
0.000000
0.000000
0.000000
0.000000
0.000000
0.000000
0.000000
0.000000
0.000000
0.000000
0.000000
0.000000
0.000000
0.000000
0.000000
0.000000
0.000000
0.000000
0.000000
0.000000
0.000000
0.000000
0.000000
0.000000
0.000000
0.000000
0.000000
0.000000
0.000000
0.000000
0.000000
0.000000
0.000000
0.000000
0.000000
0.000000
0.000000
0.000000
0.000000
0.000000
0.000000
0.000000
0.000000
0.000000
0.000000
0.000000
0.000000
0.000000
0.000000
0.000000
0.000000
0.000000
0.000000
0.000000
0.000000
0.000000
0.000000
0.000000
0.000000
0.000000
0.000000
0.000000
0.000000
0.000000
0.000000
0.000000
0.000000
0.000000
0.000000
0.000000
0.000000
0.000000
0.000000
0.000000
0.000000
0.000000
0.000000
0.000000
0.000000
0.000000
0.000000
0.000000
0.000000
0.000000
0.000000
0.000000
0.000000
0.000000
0.000000
0.000000
0.000000
0.000000
0.000000
0.000000
0.000000
0.000000
0.000000
0.000000
0.000000
0.000000
0.000000
0.000000
0.000000
0.000000
0.000000
0.000000
0.000000
0.000000
0.000000
0.000000
0.000000
0.000000
0.000000
0.000000
0.000000
0.000000
0.000000
0.000000
0.000000
0.000000
0.000000
0.000000
0.000000
0.000000
0.000000
0.000000
0.000000
0.000000
0.000000
0.000000
</DataArray>
<DataArray NumberOfComponents='1' type='Float32' Name='pressure' format='ascii'>
0.000000
0.000000
0.000000
0.000000
0.000000
0.000000
0.000000
0.000000
0.000000
0.000000
0.000000
0.000000
0.000000
0.000000
0.000000
0.000000
0.000000
0.000000
0.000000
0.000000
0.000000
0.000000
0.000000
0.000000
0.000000
0.000000
0.000000
0.000000
0.000000
0.000000
0.000000
0.000000
0.000000
0.000000
0.000000
0.000000
0.000000
0.000000
0.000000
0.000000
0.000000
0.000000
0.000000
0.000000
0.000000
0.000000
0.000000
0.000000
0.000000
0.000000
0.000000
0.000000
0.000000
0.000000
0.000000
0.000000
0.000000
0.000000
2749.173828
2701.682617
3126.743652
1395.377808
2420.485840
1369.903809
165.860672
0.000000
0.000000
0.000000
0.000000
0.000000
0.000000
0.000000
0.000000
0.000000
0.000000
0.000000
0.000000
0.000000
0.000000
0.000000
0.000000
0.000000
0.000000
0.000000
0.000000
0.000000
2545.607910
3536.218994
2827.727783
0.000000
1219.356567
407.407867
0.000000
0.000000
0.000000
0.000000
0.000000
0.000000
0.000000
0.000000
0.000000
0.000000
0.000000
0.000000
0.000000
0.000000
0.000000
0.000000
0.000000
0.000000
0.000000
0.000000
0.000000
0.000000
2218.176270
2467.424561
2040.280518
0.000000
513.880371
1462.045898
2126.943359
0.000000
1578.915771
0.000000
856.269348
0.000000
1755.088745
0.000000
2149.198242
1244.537354
0.000000
408.084076
0.000000
2411.170166
0.000000
1440.810669
0.000000
0.000000
1320.382202
0.000000
0.000000
0.000000
179.973099
1616.812256
311.619995
2538.291016
662.555542
619.329224
0.000000
0.000000
877.139465
0.000000
0.000000
0.000000
1212.065308
0.000000
0.000000
1065.374634
0.000000
742.852844
0.000000
0.000000
2002.830688
1693.131958
1033.809082
751.413330
1025.277466
1644.797729
0.000000
429.030182
2206.730713
731.918762
0.000000
235.741394
1248.928833
0.000000
530.425720
778.706482
0.000000
812.790955
1476.370483
1909.700195
0.000000
601.707336
0.000000
0.000000
2359.001221
1857.500488
2190.577148
75.279350
579.017517
724.672363
138.330109
1290.357422
0.000000
1166.801270
858.940186
1185.111938
1645.595215
1703.510132
97.490250
1737.296509
0.000000
931.389587
963.118469
1093.563599
0.000000
0.000000
0.000000
0.000000
3422.495117
3242.606201
0.000000
0.000000
0.000000
427.834900
309.261078
1234.502319
0.000000
692.977051
0.000000
1960.600098
0.000000
1079.610229
866.046753
0.000000
1118.490967
0.000000
2170.592773
0.000000
0.000000
566.915405
0.000000
0.000000
2874.895752
2513.420654
0.000000
0.000000
0.000000
378.655792
1534.458984
2164.135742
0.000000
0.000000
446.521576
0.000000
0.000000
1011.103210
0.000000
0.000000
1005.451782
0.000000
447.954315
0.000000
0.000000
0.000000
0.000000
0.000000
1383.711182
1392.382080
0.000000
0.000000
0.000000
0.000000
508.682587
0.000000
0.000000
721.215393
0.000000
1158.769287
399.164490
0.000000
661.526733
318.892487
0.000000
185.408356
0.000000
0.000000
0.000000
0.000000
0.000000
0.000000
1371.271851
1333.605103
0.000000
1891.411865
1112.626831
730.291321
1020.283264
0.000000
285.065674
0.000000
0.000000
0.000000
0.000000
0.000000
1875.605835
264.939728
0.000000
0.000000
1618.518555
0.000000
0.000000
0.000000
0.000000
0.000000
1772.199951
1649.173462
1386.520752
565.002136
0.000000
0.000000
0.000000
0.000000
469.856476
0.000000
0.000000
186.769028
0.000000
0.000000
677.118896
669.078308
0.000000
0.000000
0.000000
212.601410
1233.999023
942.325806
0.000000
0.000000
1882.697388
1855.803833
0.000000
0.000000
154.270950
0.000000
1587.800415
0.000000
0.000000
0.000000
0.000000
0.000000
300.993988
0.000000
421.106964
1104.269043
0.000000
1168.828247
1657.801392
448.885834
0.000000
0.000000
0.000000
0.000000
1380.118164
1282.388062
0.000000
0.000000
1685.142212
555.245911
0.000000
0.000000
1635.148560
1842.884766
0.000000
0.000000
965.646057
1526.080078
0.000000
0.000000
1242.382080
2186.886963
0.000000
0.000000
1211.660156
1833.967529
0.000000
0.000000
1006.855652
550.258545
0.000000
0.000000
1720.430420
1410.022949
0.000000
0.000000
994.411316
1194.110962
0.000000
0.000000
831.959351
868.289917
0.000000
0.000000
0.000000
0.000000
0.000000
0.000000
66.928429
0.000000
0.000000
0.000000
187.212723
115.394791
0.000000
0.000000
512.748779
1272.943237
0.000000
0.000000
472.320404
419.136780
0.000000
0.000000
970.482971
0.000000
0.000000
0.000000
3076.248535
2665.314697
0.000000
0.000000
2651.724365
1392.939087
0.000000
0.000000
2851.737549
2142.602295
0.000000
0.000000
1493.681885
1235.311768
0.000000
0.000000
2307.910156
2046.983154
0.000000
0.000000
1377.205200
0.000000
0.000000
0.000000
1667.826050
1433.547607
0.000000
0.000000
0.000000
0.000000
0.000000
0.000000
329.729736
0.000000
0.000000
0.000000
2064.826172
1893.027710
0.000000
0.000000
2283.489746
1152.433105
0.000000
0.000000
2158.721680
771.560730
0.000000
0.000000
1445.657349
0.000000
0.000000
0.000000
2101.512695
975.360352
0.000000
0.000000
311.725281
0.000000
0.000000
0.000000
0.000000
0.000000
0.000000
0.000000
0.000000
0.000000
0.000000
0.000000
0.000000
0.000000
0.000000
0.000000
0.000000
0.000000
0.000000
0.000000
0.000000
0.000000
0.000000
0.000000
0.000000
0.000000
0.000000
0.000000
0.000000
0.000000
0.000000
0.000000
0.000000
0.000000
0.000000
0.000000
0.000000
0.000000
0.000000
0.000000
0.000000
0.000000
0.000000
0.000000
0.000000
0.000000
0.000000
0.000000
0.000000
0.000000
0.000000
0.000000
0.000000
0.000000
0.000000
0.000000
0.000000
0.000000
0.000000
0.000000
0.000000
0.000000
0.000000
0.000000
0.000000
0.000000
0.000000
0.000000
0.000000
0.000000
0.000000
0.000000
0.000000
0.000000
0.000000
0.000000
0.000000
0.000000
0.000000
0.000000
0.000000
0.000000
0.000000
0.000000
0.000000
0.000000
0.000000
0.000000
0.000000
0.000000
0.000000
0.000000
0.000000
0.000000
0.000000
0.000000
0.000000
0.000000
0.000000
0.000000
0.000000
0.000000
0.000000
0.000000
0.000000
0.000000
0.000000
0.000000
0.000000
0.000000
</DataArray>
</PointData>
<Cells>
<DataArray type='Int32' Name='connectivity' format='ascii'>
0
1
2
3
4
5
6
7
8
9
10
11
12
13
14
15
16
17
18
19
20
21
22
23
24
25
26
27
28
29
30
31
32
33
34
35
36
37
38
39
40
41
42
43
44
45
46
47
48
49
50
51
52
53
54
55
56
57
58
59
60
61
62
63
64
65
66
67
68
69
70
71
72
73
74
75
76
77
78
79
80
81
82
83
84
85
86
87
88
89
90
91
92
93
94
95
96
97
98
99
100
101
102
103
104
105
106
107
108
109
110
111
112
113
114
115
116
117
118
119
120
121
122
123
124
125
126
127
128
129
130
131
132
133
134
135
136
137
138
139
140
141
142
143
144
145
146
147
148
149
150
151
152
153
154
155
156
157
158
159
160
161
162
163
164
165
166
167
168
169
170
171
172
173
174
175
176
177
178
179
180
181
182
183
184
185
186
187
188
189
190
191
192
193
194
195
196
197
198
199
200
201
202
203
204
205
206
207
208
209
210
211
212
213
214
215
216
217
218
219
220
221
222
223
224
225
226
227
228
229
230
231
232
233
234
235
236
237
238
239
240
241
242
243
244
245
246
247
248
249
250
251
252
253
254
255
256
257
258
259
260
261
262
263
264
265
266
267
268
269
270
271
272
273
274
275
276
277
278
279
280
281
282
283
284
285
286
287
288
289
290
291
292
293
294
295
296
297
298
299
300
301
302
303
304
305
306
307
308
309
310
311
312
313
314
315
316