<?xml version='1.0' encoding='UTF-8'?>
<VTKFile xmlns='VTK' byte_order='LittleEndian' version='0.1' type='UnstructuredGrid'>
<UnstructuredGrid>
<Piece NumberOfCells='584' NumberOfPoints='584'>
<Points>
<DataArray NumberOfComponents='3' type='Float32' Name='Position' format='ascii'>
-0.075000 -0.075000 0.000000
-0.075000 -0.050000 0.000000
-0.075000 -0.025000 0.000000
-0.075000 0.000000 0.000000
-0.075000 0.025000 0.000000
-0.075000 0.050000 0.000000
-0.075000 0.075000 0.000000
-0.075000 0.100000 0.000000
-0.075000 0.125000 0.000000
-0.075000 0.150000 0.000000
-0.075000 0.175000 0.000000
-0.075000 0.200000 0.000000
-0.075000 0.225000 0.000000
-0.075000 0.250000 0.000000
-0.075000 0.275000 0.000000
-0.075000 0.300000 0.000000
-0.075000 0.325000 0.000000
-0.075000 0.350000 0.000000
-0.075000 0.375000 0.000000
-0.075000 0.400000 0.000000
-0.075000 0.425000 0.000000
-0.075000 0.450000 0.000000
-0.075000 0.475000 0.000000
-0.075000 0.500000 0.000000
-0.075000 0.525000 0.000000
-0.075000 0.550000 0.000000
-0.075000 0.575000 0.000000
-0.075000 0.600000 0.000000
-0.050000 -0.075000 0.000000
-0.050000 -0.050000 0.000000
-0.050000 -0.025000 0.000000
-0.050000 0.000000 0.000000
-0.050000 0.025000 0.000000
-0.050000 0.050000 0.000000
-0.050000 0.075000 0.000000
-0.050000 0.100000 0.000000
-0.050000 0.125000 0.000000
-0.050000 0.150000 0.000000
-0.050000 0.175000 0.000000
-0.050000 0.200000 0.000000
-0.050000 0.225000 0.000000
-0.050000 0.250000 0.000000
-0.050000 0.275000 0.000000
-0.050000 0.300000 0.000000
-0.050000 0.325000 0.000000
-0.050000 0.350000 0.000000
-0.050000 0.375000 0.000000
-0.050000 0.400000 0.000000
-0.050000 0.425000 0.000000
-0.050000 0.450000 0.000000
-0.050000 0.475000 0.000000
-0.050000 0.500000 0.000000
-0.050000 0.525000 0.000000
-0.050000 0.550000 0.000000
-0.050000 0.575000 0.000000
-0.050000 0.600000 0.000000
-0.025000 -0.075000 0.000000
-0.025000 -0.050000 0.000000
-0.025000 -0.025000 0.000000
-0.025000 0.000000 0.000000
-0.025000 0.025000 0.000000
-0.025000 0.050000 0.000000
-0.025000 0.075000 0.000000
-0.025000 0.100000 0.000000
-0.025000 0.125000 0.000000
-0.025000 0.150000 0.000000
-0.025000 0.175000 0.000000
-0.025000 0.200000 0.000000
-0.025000 0.225000 0.000000
-0.025000 0.250000 0.000000
-0.025000 0.275000 0.000000
-0.025000 0.300000 0.000000
-0.025000 0.325000 0.000000
-0.025000 0.350000 0.000000
-0.025000 0.375000 0.000000
-0.025000 0.400000 0.000000
-0.025000 0.425000 0.000000
-0.025000 0.450000 0.000000
-0.025000 0.475000 0.000000
-0.025000 0.500000 0.000000
-0.025000 0.525000 0.000000
-0.025000 0.550000 0.000000
-0.025000 0.575000 0.000000
-0.025000 0.600000 0.000000
0.000000 -0.075000 0.000000
0.000000 -0.050000 0.000000
0.000000 -0.025000 0.000000
0.000000 0.000000 0.000000
0.000000 0.025000 0.000000
0.000000 0.050000 0.000000
0.000000 0.075000 0.000000
0.000000 0.100000 0.000000
0.000000 0.125000 0.000000
0.000000 0.150000 0.000000
0.000000 0.175000 0.000000
0.000000 0.200000 0.000000
0.000000 0.225000 0.000000
0.000000 0.250000 0.000000
0.000000 0.275000 0.000000
0.000000 0.300000 0.000000
0.000000 0.325000 0.000000
0.000000 0.350000 0.000000
0.000000 0.375000 0.000000
0.000000 0.400000 0.000000
0.000000 0.425000 0.000000
0.000000 0.450000 0.000000
0.000000 0.475000 0.000000
0.000000 0.500000 0.000000
0.000000 0.525000 0.000000
0.000000 0.550000 0.000000
0.000000 0.575000 0.000000
0.000000 0.600000 0.000000
0.025000 -0.075000 0.000000
0.025000 -0.050000 0.000000
0.025000 -0.025000 0.000000
0.025000 0.000000 0.000000
0.049111 0.024252 0.000000
0.023306 0.025247 0.000000
0.059322 0.041917 0.000000
0.027481 0.050075 0.000000
0.069036 0.060970 0.000000
0.027643 0.068673 0.000000
0.067167 0.082785 0.000000
0.031407 0.089154 0.000000
0.057684 0.100141 0.000000
0.024162 0.108551 0.000000
0.044615 0.126045 0.000000
0.024082 0.136654 0.000000
0.029330 0.159415 0.000000
0.022889 0.184059 0.000000
0.028004 0.206002 0.000000
0.024637 0.229032 0.000000
0.030432 0.249640 0.000000
0.024357 0.270626 0.000000
0.030199 0.295815 0.000000
0.025421 0.311754 0.000000
0.050000 -0.075000 0.000000
0.050000 -0.050000 0.000000
0.050000 -0.025000 0.000000
0.050000 0.000000 0.000000
0.112434 0.032056 0.000000
0.085627 0.021601 0.000000
0.085478 0.042769 0.000000
0.145488 0.075719 0.000000
0.094351 0.071999 0.000000
0.109063 0.087920 0.000000
0.085816 0.102484 0.000000
0.113225 0.109665 0.000000
0.071640 0.123260 0.000000
0.087541 0.135976 0.000000
0.061154 0.147726 0.000000
0.079823 0.164484 0.000000
0.049916 0.169118 0.000000
0.072609 0.183977 0.000000
0.052862 0.197825 0.000000
0.065478 0.215007 0.000000
0.055394 0.235273 0.000000
0.061685 0.256053 0.000000
0.052753 0.277738 0.000000
0.057712 0.301373 0.000000
0.075000 -0.075000 0.000000
0.075000 -0.050000 0.000000
0.075000 -0.025000 0.000000
0.075000 0.000000 0.000000
0.130156 0.022551 0.000000
0.119516 0.064180 0.000000
0.167988 0.020333 0.000000
0.130995 0.048032 0.000000
0.163349 0.060668 0.000000
0.167043 0.089765 0.000000
0.190334 0.096926 0.000000
0.136240 0.097842 0.000000
0.155313 0.109917 0.000000
0.117733 0.133672 0.000000
0.135948 0.150670 0.000000
0.107441 0.153101 0.000000
0.111430 0.175079 0.000000
0.102277 0.194538 0.000000
0.090370 0.213533 0.000000
0.087303 0.234534 0.000000
0.099355 0.252629 0.000000
0.083064 0.269297 0.000000
0.092457 0.294351 0.000000
0.075628 0.297428 0.000000
0.100000 -0.075000 0.000000
0.100000 -0.050000 0.000000
0.100000 -0.025000 0.000000
0.100000 0.000000 0.000000
0.219753 0.024623 0.000000
0.197412 0.027714 0.000000
0.190049 0.049735 0.000000
0.217836 0.063583 0.000000
0.160859 0.040764 0.000000
0.249337 0.069006 0.000000
0.193913 0.071405 0.000000
0.213079 0.088694 0.000000
0.180981 0.122850 0.000000
0.202438 0.132089 0.000000
0.144589 0.130566 0.000000
0.178950 0.142816 0.000000
0.160212 0.157926 0.000000
0.151303 0.178409 0.000000
0.130960 0.190868 0.000000
0.124111 0.211034 0.000000
0.132493 0.230092 0.000000
0.120065 0.249524 0.000000
0.121714 0.273632 0.000000
0.116199 0.296858 0.000000
0.125000 -0.075000 0.000000
0.125000 -0.050000 0.000000
0.125000 -0.025000 0.000000
0.125000 0.000000 0.000000
0.273814 0.023008 0.000000
0.250816 0.023358 0.000000
0.314243 0.020882 0.000000
0.285432 0.042920 0.000000
0.309721 0.050903 0.000000
0.227123 0.044874 0.000000
0.255380 0.048489 0.000000
0.263942 0.083090 0.000000
0.235058 0.100643 0.000000
0.217181 0.114201 0.000000
0.244162 0.130847 0.000000
0.214648 0.154944 0.000000
0.189356 0.169489 0.000000
0.171973 0.184385 0.000000
0.178774 0.210038 0.000000
0.155906 0.213814 0.000000
0.174511 0.235656 0.000000
0.151466 0.245016 0.000000
0.156631 0.272560 0.000000
0.141758 0.276732 0.000000
0.150000 -0.075000 0.000000
0.150000 -0.050000 0.000000
0.150000 -0.025000 0.000000
0.150000 0.000000 0.000000
0.382846 0.021759 0.000000
0.344495 0.023156 0.000000
0.365608 0.037491 0.000000
0.327483 0.042671 0.000000
0.352435 0.053305 0.000000
0.390752 0.050611 0.000000
0.306887 0.073328 0.000000
0.345196 0.077663 0.000000
0.281729 0.064174 0.000000
0.306211 0.094325 0.000000
0.280956 0.101976 0.000000
0.254588 0.107281 0.000000
0.263109 0.137058 0.000000
0.233622 0.153197 0.000000
0.224342 0.174825 0.000000
0.217218 0.191384 0.000000
0.197954 0.198680 0.000000
0.203047 0.228361 0.000000
0.192899 0.249441 0.000000
0.175496 0.267456 0.000000
0.175000 -0.075000 0.000000
0.175000 -0.050000 0.000000
0.175000 -0.025000 0.000000
0.175000 0.000000 0.000000
0.477789 0.032690 0.000000
0.422004 0.021121 0.000000
0.457460 0.054927 0.000000
0.455389 0.022861 0.000000
0.439864 0.043307 0.000000
0.406495 0.038582 0.000000
0.423186 0.060072 0.000000
0.417172 0.079919 0.000000
0.376529 0.070970 0.000000
0.388579 0.086603 0.000000
0.330252 0.091706 0.000000
0.335715 0.117393 0.000000
0.295058 0.116053 0.000000
0.295831 0.138480 0.000000
0.274758 0.153425 0.000000
0.268905 0.173182 0.000000
0.259083 0.192405 0.000000
0.235240 0.213972 0.000000
0.228973 0.241365 0.000000
0.211815 0.254813 0.000000
0.200000 -0.075000 0.000000
0.200000 -0.050000 0.000000
0.200000 -0.025000 0.000000
0.200000 0.000000 0.000000
0.680550 0.039712 0.000000
0.543479 0.021211 0.000000
0.610171 0.024814 0.000000
0.500523 0.021272 0.000000
0.586075 0.023339 0.000000
0.572607 0.037497 0.000000
0.517783 0.039682 0.000000
0.490287 0.049419 0.000000
0.458511 0.076089 0.000000
0.438025 0.091135 0.000000
0.415789 0.102706 0.000000
0.360988 0.092379 0.000000
0.382496 0.111822 0.000000
0.360757 0.119687 0.000000
0.325124 0.132608 0.000000
0.332154 0.152636 0.000000
0.300903 0.160254 0.000000
0.290690 0.186842 0.000000
0.275316 0.207563 0.000000
0.244204 0.230955 0.000000
0.225000 -0.075000 0.000000
0.225000 -0.050000 0.000000
0.225000 -0.025000 0.000000
0.225000 0.000000 0.000000
0.701797 0.023817 0.000000
0.724926 0.055143 0.000000
0.661075 0.025545 0.000000
0.635468 0.062181 0.000000
0.641121 0.023540 0.000000
0.631647 0.078914 0.000000
0.628679 0.043898 0.000000
0.581642 0.055075 0.000000
0.538298 0.038733 0.000000
0.551300 0.065981 0.000000
0.518935 0.070090 0.000000
0.492023 0.069356 0.000000
0.475487 0.093577 0.000000
0.458150 0.112751 0.000000
0.413485 0.122108 0.000000
0.385659 0.137528 0.000000
0.365051 0.147261 0.000000
0.333956 0.174916 0.000000
0.309701 0.196018 0.000000
0.259596 0.216815 0.000000
0.250000 -0.075000 0.000000
0.250000 -0.050000 0.000000
0.250000 -0.025000 0.000000
0.250000 0.000000 0.000000
0.787859 0.034011 0.000000
0.776849 0.021457 0.000000
0.726042 0.021209 0.000000
0.756300 0.034977 0.000000
0.745279 0.043045 0.000000
0.702966 0.049687 0.000000
0.687682 0.073386 0.000000
0.677586 0.058351 0.000000
0.635892 0.098835 0.000000
0.610954 0.061676 0.000000
0.589782 0.089285 0.000000
0.575696 0.074029 0.000000
0.546353 0.082964 0.000000
0.524250 0.084941 0.000000
0.494409 0.104647 0.000000
0.471845 0.114500 0.000000
0.431301 0.138306 0.000000
0.403119 0.140140 0.000000
0.357219 0.160929 0.000000
0.324221 0.186515 0.000000
0.275000 -0.075000 0.000000
0.275000 -0.050000 0.000000
0.275000 -0.025000 0.000000
0.275000 0.000000 0.000000
0.300000 -0.075000 0.000000
0.300000 -0.050000 0.000000
0.300000 -0.025000 0.000000
0.300000 0.000000 0.000000
0.325000 -0.075000 0.000000
0.325000 -0.050000 0.000000
0.325000 -0.025000 0.000000
0.325000 0.000000 0.000000
0.350000 -0.075000 0.000000
0.350000 -0.050000 0.000000
0.350000 -0.025000 0.000000
0.350000 0.000000 0.000000
0.375000 -0.075000 0.000000
0.375000 -0.050000 0.000000
0.375000 -0.025000 0.000000
0.375000 0.000000 0.000000
0.400000 -0.075000 0.000000
0.400000 -0.050000 0.000000
0.400000 -0.025000 0.000000
0.400000 0.000000 0.000000
0.425000 -0.075000 0.000000
0.425000 -0.050000 0.000000
0.425000 -0.025000 0.000000
0.425000 0.000000 0.000000
0.450000 -0.075000 0.000000
0.450000 -0.050000 0.000000
0.450000 -0.025000 0.000000
0.450000 0.000000 0.000000
0.475000 -0.075000 0.000000
0.475000 -0.050000 0.000000
0.475000 -0.025000 0.000000
0.475000 0.000000 0.000000
0.500000 -0.075000 0.000000
0.500000 -0.050000 0.000000
0.500000 -0.025000 0.000000
0.500000 0.000000 0.000000
0.525000 -0.075000 0.000000
0.525000 -0.050000 0.000000
0.525000 -0.025000 0.000000
0.525000 0.000000 0.000000
0.550000 -0.075000 0.000000
0.550000 -0.050000 0.000000
0.550000 -0.025000 0.000000
0.550000 0.000000 0.000000
0.575000 -0.075000 0.000000
0.575000 -0.050000 0.000000
0.575000 -0.025000 0.000000
0.575000 0.000000 0.000000
0.600000 -0.075000 0.000000
0.600000 -0.050000 0.000000
0.600000 -0.025000 0.000000
0.600000 0.000000 0.000000
0.625000 -0.075000 0.000000
0.625000 -0.050000 0.000000
0.625000 -0.025000 0.000000
0.625000 0.000000 0.000000
0.650000 -0.075000 0.000000
0.650000 -0.050000 0.000000
0.650000 -0.025000 0.000000
0.650000 0.000000 0.000000
0.675000 -0.075000 0.000000
0.675000 -0.050000 0.000000
0.675000 -0.025000 0.000000
0.675000 0.000000 0.000000
0.700000 -0.075000 0.000000
0.700000 -0.050000 0.000000
0.700000 -0.025000 0.000000
0.700000 0.000000 0.000000
0.725000 -0.075000 0.000000
0.725000 -0.050000 0.000000
0.725000 -0.025000 0.000000
0.725000 0.000000 0.000000
0.750000 -0.075000 0.000000
0.750000 -0.050000 0.000000
0.750000 -0.025000 0.000000
0.750000 0.000000 0.000000
0.775000 -0.075000 0.000000
0.775000 -0.050000 0.000000
0.775000 -0.025000 0.000000
0.775000 0.000000 0.000000
0.800000 -0.075000 0.000000
0.800000 -0.050000 0.000000
0.800000 -0.025000 0.000000
0.800000 0.000000 0.000000
0.825000 -0.075000 0.000000
0.825000 -0.050000 0.000000
0.825000 -0.025000 0.000000
0.825000 0.000000 0.000000
0.850000 -0.075000 0.000000
0.850000 -0.050000 0.000000
0.850000 -0.025000 0.000000
0.850000 0.000000 0.000000
0.875000 -0.075000 0.000000
0.875000 -0.050000 0.000000
0.875000 -0.025000 0.000000
0.875000 0.000000 0.000000
0.900000 -0.075000 0.000000
0.900000 -0.050000 0.000000
0.900000 -0.025000 0.000000
0.900000 0.000000 0.000000
0.925000 -0.075000 0.000000
0.925000 -0.050000 0.000000
0.925000 -0.025000 0.000000
0.925000 0.000000 0.000000
0.950000 -0.075000 0.000000
0.950000 -0.050000 0.000000
0.950000 -0.025000 0.000000
0.950000 0.000000 0.000000
0.975000 -0.075000 0.000000
0.975000 -0.050000 0.000000
0.975000 -0.025000 0.000000
0.975000 0.000000 0.000000
1.000000 -0.075000 0.000000
1.000000 -0.050000 0.000000
1.000000 -0.025000 0.000000
1.000000 0.000000 0.000000
1.025000 -0.075000 0.000000
1.025000 -0.050000 0.000000
1.025000 -0.025000 0.000000
1.025000 0.000000 0.000000
1.025000 0.025000 0.000000
1.025000 0.050000 0.000000
1.025000 0.075000 0.000000
1.025000 0.100000 0.000000
1.025000 0.125000 0.000000
1.025000 0.150000 0.000000
1.025000 0.175000 0.000000
1.025000 0.200000 0.000000
1.025000 0.225000 0.000000
1.025000 0.250000 0.000000
1.025000 0.275000 0.000000
1.025000 0.300000 0.000000
1.025000 0.325000 0.000000
1.025000 0.350000 0.000000
1.025000 0.375000 0.000000
1.025000 0.400000 0.000000
1.025000 0.425000 0.000000
1.025000 0.450000 0.000000
1.025000 0.475000 0.000000
1.025000 0.500000 0.000000
1.025000 0.525000 0.000000
1.025000 0.550000 0.000000
1.025000 0.575000 0.000000
1.025000 0.600000 0.000000
1.050000 -0.075000 0.000000
1.050000 -0.050000 0.000000
1.050000 -0.025000 0.000000
1.050000 0.000000 0.000000
1.050000 0.025000 0.000000
1.050000 0.050000 0.000000
1.050000 0.075000 0.000000
1.050000 0.100000 0.000000
1.050000 0.125000 0.000000
1.050000 0.150000 0.000000
1.050000 0.175000 0.000000
1.050000 0.200000 0.000000
1.050000 0.225000 0.000000
1.050000 0.250000 0.000000
1.050000 0.275000 0.000000
1.050000 0.300000 0.000000
1.050000 0.325000 0.000000
1.050000 0.350000 0.000000
1.050000 0.375000 0.000000
1.050000 0.400000 0.000000
1.050000 0.425000 0.000000
1.050000 0.450000 0.000000
1.050000 0.475000 0.000000
1.050000 0.500000 0.000000
1.050000 0.525000 0.000000
1.050000 0.550000 0.000000
1.050000 0.575000 0.000000
1.050000 0.600000 0.000000
1.075000 -0.075000 0.000000
1.075000 -0.050000 0.000000
1.075000 -0.025000 0.000000
1.075000 0.000000 0.000000
1.075000 0.025000 0.000000
1.075000 0.050000 0.000000
1.075000 0.075000 0.000000
1.075000 0.100000 0.000000
1.075000 0.125000 0.000000
1.075000 0.150000 0.000000
1.075000 0.175000 0.000000
1.075000 0.200000 0.000000
1.075000 0.225000 0.000000
1.075000 0.250000 0.000000
1.075000 0.275000 0.000000
1.075000 0.300000 0.000000
1.075000 0.325000 0.000000
1.075000 0.350000 0.000000
1.075000 0.375000 0.000000
1.075000 0.400000 0.000000
1.075000 0.425000 0.000000
1.075000 0.450000 0.000000
1.075000 0.475000 0.000000
1.075000 0.500000 0.000000
1.075000 0.525000 0.000000
1.075000 0.550000 0.000000
1.075000 0.575000 0.000000
1.075000 0.600000 0.000000
1.100000 -0.075000 0.000000
1.100000 -0.050000 0.000000
1.100000 -0.025000 0.000000
1.100000 0.000000 0.000000
1.100000 0.025000 0.000000
1.100000 0.050000 0.000000
1.100000 0.075000 0.000000
1.100000 0.100000 0.000000
1.100000 0.125000 0.000000
1.100000 0.150000 0.000000
1.100000 0.175000 0.000000
1.100000 0.200000 0.000000
1.100000 0.225000 0.000000
1.100000 0.250000 0.000000
1.100000 0.275000 0.000000
1.100000 0.300000 0.000000
1.100000 0.325000 0.000000
1.100000 0.350000 0.000000
1.100000 0.375000 0.000000
1.100000 0.400000 0.000000
1.100000 0.425000 0.000000
1.100000 0.450000 0.000000
1.100000 0.475000 0.000000
1.100000 0.500000 0.000000
1.100000 0.525000 0.000000
1.100000 0.550000 0.000000
1.100000 0.575000 0.000000
1.100000 0.600000 0.000000
</DataArray>
</Points>
<PointData>
<DataArray NumberOfComponents='1' type='Int32' Name='ParticleType' format='ascii'>
3
3
3
3
3
3
3
3
3
3
3
3
3
3
3
3
3
3
3
3
3
3
3
3
3
3
2
2
3
3
3
3
3
3
3
3
3
3
3
3
3
3
3
3
3
3
3
3
3
3
3
3
3
3
2
2
3
3
2
2
2
2
2
2
2
2
2
2
2
2
2
2
2
2
2
2
2
2
2
2
2
2
2
2
3
3
2
2
2
2
2
2
2
2
2
2
2
2
2
2
2
2
2
2
2
2
2
2
2
2
2
2
3
3
2
2
0
0
0
0
0
0
0
0
0
0
0
0
0
0
0
0
0
0
0
0
3
3
2
2
0
0
0
0
0
0
0
0
0
0
0
0
0
0
0
0
0
0
0
0
3
3
2
2
0
0
0
0
0
0
0
0
0
0
0
0
0
0
0
0
0
0
0
0
3
3
2
2
0
0
0
0
0
0
0
0
0
0
0
0
0
0
0
0
0
0
0
0
3
3
2
2
0
0
0
0
0
0
0
0
0
0
0
0
0
0
0
0
0
0
0
0
3
3
2
2
0
0
0
0
0
0
0
0
0
0
0
0
0
0
0
0
0
0
0
0
3
3
2
2
0
0
0
0
0
0
0
0
0
0
0
0
0
0
0
0
0
0
0
0
3
3
2
2
0
0
0
0
0
0
0
0
0
0
0
0
0
0
0
0
0
0
0
0
3
3
2
2
0
0
0
0
0
0
0
0
0
0
0
0
0
0
0
0
0
0
0
0
3
3
2
2
0
0
0
0
0
0
0
0
0
0
0
0
0
0
0
0
0
0
0
0
3
3
2
2
3
3
2
2
3
3
2
2
3
3
2
2
3
3
2
2
3
3
2
2
3
3
2
2
3
3
2
2
3
3
2
2
3
3
2
2
3
3
2
2
3
3
2
2
3
3
2
2
3
3
2
2
3
3
2
2
3
3
2
2
3
3
2
2
3
3
2
2
3
3
2
2
3
3
2
2
3
3
2
2
3
3
2
2
3
3
2
2
3
3
2
2
3
3
2
2
3
3
2
2
3
3
2
2
3
3
2
2
3
3
2
2
3
3
2
2
3
3
2
2
2
2
2
2
2
2
2
2
2
2
2
2
2
2
2
2
2
2
2
2
2
2
2
2
3
3
2
2
2
2
2
2
2
2
2
2
2
2
2
2
2
2
2
2
2
2
2
2
2
2
2
2
3
3
3
3
3
3
3
3
3
3
3
3
3
3
3
3
3
3
3
3
3
3
3
3
3
3
2
2
3
3
3
3
3
3
3
3
3
3
3
3
3
3
3
3
3
3
3
3
3
3
3
3
3
3
2
2
</DataArray>
<DataArray NumberOfComponents='1' type='Float32' Name='Velocity' format='ascii'>
0.000000
0.000000
0.000000
0.000000
0.000000
0.000000
0.000000
0.000000
0.000000
0.000000
0.000000
0.000000
0.000000
0.000000
0.000000
0.000000
0.000000
0.000000
0.000000
0.000000
0.000000
0.000000
0.000000
0.000000
0.000000
0.000000
0.000000
0.000000
0.000000
0.000000
0.000000
0.000000
0.000000
0.000000
0.000000
0.000000
0.000000
0.000000
0.000000
0.000000
0.000000
0.000000
0.000000
0.000000
0.000000
0.000000
0.000000
0.000000
0.000000
0.000000
0.000000
0.000000
0.000000
0.000000
0.000000
0.000000
0.000000
0.000000
0.000000
0.000000
0.000000
0.000000
0.000000
0.000000
0.000000
0.000000
0.000000
0.000000
0.000000
0.000000
0.000000
0.000000
0.000000
0.000000
0.000000
0.000000
0.000000
0.000000
0.000000
0.000000
0.000000
0.000000
0.000000
0.000000
0.000000
0.000000
0.000000
0.000000
0.000000
0.000000
0.000000
0.000000
0.000000
0.000000
0.000000
0.000000
0.000000
0.000000
0.000000
0.000000
0.000000
0.000000
0.000000
0.000000
0.000000
0.000000
0.000000
0.000000
0.000000
0.000000
0.000000
0.000000
0.000000
0.000000
0.000000
0.000000
0.484025
0.263300
0.173855
0.270115
0.443238
0.162877
0.236727
0.449235
0.402889
0.424465
0.603552
0.796259
0.825658
0.801828
0.713032
0.681512
0.906536
0.745738
0.771877
0.908440
0.000000
0.000000
0.000000
0.000000
0.293720
0.477482
0.475450
0.726130
0.109916
0.478330
0.514559
0.434118
0.379184
0.481981
0.306342
0.387146
0.487539
0.450563
0.811190
0.814031
0.868035
0.780777
0.878274
0.866941
0.000000
0.000000
0.000000
0.000000
0.454718
0.305247
0.607313
0.197809
0.326040
0.875826
0.896046
0.509602
0.779311
0.683600
0.622623
0.572437
0.691117
0.480754
0.520919
0.337461
0.599334
0.730322
0.712208
1.076929
0.000000
0.000000
0.000000
0.000000
0.204987
0.606302
0.490018
0.894734
0.212616
1.171989
0.833649
1.173909
0.871588
0.937738
0.581916
0.837683
0.966614
0.806943
0.863769
0.588763
0.850787
0.899999
0.795415
0.872123
0.000000
0.000000
0.000000
0.000000
1.283728
0.939618
1.462367
1.169554
1.324653
0.515595
0.969768
1.385924
0.854141
0.497696
1.234618
0.939487
0.417662
0.373204
0.309378
0.670095
0.945056
0.882327
0.903105
1.136346
0.000000
0.000000
0.000000
0.000000
1.593454
1.015828
1.733685
1.509056
1.545137
2.139149
1.380897
1.581637
1.017868
1.555059
1.076899
1.187431
1.400658
1.008480
0.724531
0.684212
1.104006
1.019539
0.956635
1.239815
0.000000
0.000000
0.000000
0.000000
2.412194
1.851082
1.676228
2.256787
2.098834
1.511039
2.364486
2.047046
1.901847
1.780703
1.075369
1.502127
1.248611
1.280404
1.273009
1.122241
1.324373
1.147877
1.111765
1.371404
0.000000
0.000000
0.000000
0.000000
2.844668
2.515612
3.109136
2.255766
2.735004
3.014472
2.793022
2.439291
2.000089
2.231171
1.864735
1.276076
2.081107
1.784883
1.292817
1.720551
1.556908
1.448216
1.689347
1.273747
0.000000
0.000000
0.000000
0.000000
2.873142
2.950779
2.811705
2.428108
2.640240
2.766837
3.118038
2.756709
2.595953
2.779221
2.868292
2.540964
2.564309
2.495879
1.785131
1.720029
2.020855
1.702534
1.655839
1.545962
0.000000
0.000000
0.000000
0.000000
2.774211
3.192099
2.988486
2.804712
2.697506
2.873482
2.694690
2.741439
2.616598
2.519475
2.867036
2.976927
2.610674
2.891688
2.888410
2.634016
2.359875
2.054964
1.780212
1.655974
0.000000
0.000000
0.000000
0.000000
0.000000
0.000000
0.000000
0.000000
0.000000
0.000000
0.000000
0.000000
0.000000
0.000000
0.000000
0.000000
0.000000
0.000000
0.000000
0.000000
0.000000
0.000000
0.000000
0.000000
0.000000
0.000000
0.000000
0.000000
0.000000
0.000000
0.000000
0.000000
0.000000
0.000000
0.000000
0.000000
0.000000
0.000000
0.000000
0.000000
0.000000
0.000000
0.000000
0.000000
0.000000
0.000000
0.000000
0.000000
0.000000
0.000000
0.000000
0.000000
0.000000
0.000000
0.000000
0.000000
0.000000
0.000000
0.000000
0.000000
0.000000
0.000000
0.000000
0.000000
0.000000
0.000000
0.000000
0.000000
0.000000
0.000000
0.000000
0.000000
0.000000
0.000000
0.000000
0.000000
0.000000
0.000000
0.000000
0.000000
0.000000
0.000000
0.000000
0.000000
0.000000
0.000000
0.000000
0.000000
0.000000
0.000000
0.000000
0.000000
0.000000
0.000000
0.000000
0.000000
0.000000
0.000000
0.000000
0.000000
0.000000
0.000000
0.000000
0.000000
0.000000
0.000000
0.000000
0.000000
0.000000
0.000000
0.000000
0.000000
0.000000
0.000000
0.000000
0.000000
0.000000
0.000000
0.000000
0.000000
0.000000
0.000000
0.000000
0.000000
0.000000
0.000000
0.000000
0.000000
0.000000
0.000000
0.000000
0.000000
0.000000
0.000000
0.000000
0.000000
0.000000
0.000000
0.000000
0.000000
0.000000
0.000000
0.000000
0.000000
0.000000
0.000000
0.000000
0.000000
0.000000
0.000000
0.000000
0.000000
0.000000
0.000000
0.000000
0.000000
0.000000
0.000000
0.000000
0.000000
0.000000
0.000000
0.000000
0.000000
0.000000
0.000000
0.000000
0.000000
0.000000
0.000000
0.000000
0.000000
0.000000
0.000000
0.000000
0.000000
0.000000
0.000000
0.000000
0.000000
0.000000
0.000000
0.000000
0.000000
0.000000
0.000000
0.000000
0.000000
0.000000
0.000000
0.000000
0.000000
0.000000
0.000000
0.000000
0.000000
0.000000
0.000000
0.000000
0.000000
0.000000
0.000000
0.000000
0.000000
0.000000
0.000000
0.000000
0.000000
0.000000
0.000000
0.000000
0.000000
0.000000
0.000000
0.000000
0.000000
0.000000
0.000000
0.000000
0.000000
0.000000
0.000000
0.000000
0.000000
0.000000
0.000000
0.000000
0.000000
0.000000
0.000000
0.000000
0.000000
</DataArray>
<DataArray NumberOfComponents='1' type='Float32' Name='pressure' format='ascii'>
0.000000
0.000000
0.000000
0.000000
0.000000
0.000000
0.000000
0.000000
0.000000
0.000000
0.000000
0.000000
0.000000
0.000000
0.000000
0.000000
0.000000
0.000000
0.000000
0.000000
0.000000
0.000000
0.000000
0.000000
0.000000
0.000000
0.000000
0.000000
0.000000
0.000000
0.000000
0.000000
0.000000
0.000000
0.000000
0.000000
0.000000
0.000000
0.000000
0.000000
0.000000
0.000000
0.000000
0.000000
0.000000
0.000000
0.000000
0.000000
0.000000
0.000000
0.000000
0.000000
0.000000
0.000000
0.000000
0.000000
0.000000
0.000000
5415.484375
5273.822754
5228.705566
2916.060303
2173.167725
2716.121094
2623.629883
1951.507324
2210.328613
982.314819
250.728271
0.000000
0.000000
0.000000
0.000000
0.000000
0.000000
0.000000
0.000000
0.000000
0.000000
0.000000
0.000000
0.000000
0.000000
0.000000
0.000000
0.000000
5394.696777
5793.465820
6018.651367
3280.490234
2424.757812
2633.120117
3565.100098
1240.157837
2454.058838
1507.851807
533.775574
0.000000
0.000000
0.000000
0.000000
0.000000
0.000000
0.000000
0.000000
0.000000
0.000000
0.000000
0.000000
0.000000
0.000000
0.000000
0.000000
0.000000
5203.765625
5381.247070
4387.911621
5344.540527
4877.005859
2775.639893
4182.332031
3952.660400
4318.637695
2674.979004
3389.260254
3503.333252
2344.664307
3583.598877
1852.559570
1767.737549
1066.976685
1145.459595
750.543030
40.397812
450.978302
0.000000
0.000000
0.000000
5383.864746
4398.531250
3030.694824
4679.619141
4171.109863
3004.509033
3410.453369
3875.225586
1887.842896
2531.347656
4258.632324
2350.893066
2691.944336
1857.143677
2537.609375
1666.285034
1479.502686
2193.666748
800.519409
876.838989
414.290253
0.000000
0.000000
0.000000
5841.931641
4507.834961
4827.726074
3560.103760
3141.953369
3606.733154
3811.201660
1611.296875
2701.189697
3373.318115
3231.465088
3404.050049
1388.441772
3011.785156
2639.117188
1560.155029
1557.659302
577.293884
1164.750488
869.543579
0.000000
0.000000
0.000000
0.000000
5501.833008
4589.180664
3590.133545
2641.590332
3053.972168
2510.582520
3363.609863
2361.706787
3281.903564
3101.270508
2295.015137
950.578613
1740.681396
2606.498047
1079.972290
2261.871826
1652.098877
1493.202148
614.459595
1715.049805
0.000000
0.000000
0.000000
0.000000
5720.126465
4965.052734
1789.258179
3815.760498
0.000000
2847.730225
2792.268311
3519.093018
2670.570312
2052.814209
3531.038330
1609.214600
489.504517
3274.283691
172.841736
2064.545654
1106.812988
0.000000
1645.687988
431.722626
0.000000
0.000000
0.000000
0.000000
5390.681152
3015.029541
3109.855469
2472.157227
4429.271973
2273.279541
1722.228760
918.200928
2097.153076
3472.854492
2080.078369
2374.753174
1758.115845
2114.987305
2351.708984
22.432159
311.405212
1167.938721
34.142799
0.000000
0.000000
0.000000
0.000000
0.000000
5673.421387
4866.363770
2417.856201
2306.408203
1209.009521
0.000000
2536.958984
2563.521240
2048.913818
2233.168457
3030.328613
862.341370
955.309143
400.405640
1847.978149
0.000000
3327.928223
326.468506
0.000000
1591.612427
0.000000
0.000000
0.000000
0.000000
3080.291016
1877.919067
1204.553467
1034.207153
0.000000
0.000000
0.000000
206.950531
0.000000
961.526184
1038.071289
0.000000
1778.630249
2106.549561
2173.691650
1009.922974
1413.651367
1702.957520
0.000000
0.000000
0.000000
0.000000
0.000000
0.000000
3980.899414
3589.790039
0.000000
0.000000
0.000000
0.000000
1228.261230
0.000000
0.000000
0.000000
0.000000
896.866882
470.865448
0.000000
3043.214844
0.000000
1399.152466
0.000000
314.450409
0.000000
0.000000
0.000000
0.000000
0.000000
4781.196777
5921.499512
0.000000
0.000000
0.000000
238.253021
0.000000
0.000000
0.000000
0.000000
0.000000
0.000000
0.000000
0.000000
0.000000
0.000000
0.000000
0.000000
0.000000
0.000000
0.000000
0.000000
0.000000
0.000000
4636.971191
4478.630859
0.000000
0.000000
4171.238770
0.000000
0.000000
0.000000
4816.994629
3825.464355
0.000000
0.000000
4439.796875
4179.920410
0.000000
0.000000
4827.015625
2984.890137
0.000000
0.000000
4339.747070
2170.737793
0.000000
0.000000
4801.141113
5247.120117
0.000000
0.000000
3105.861328
2234.145752
0.000000
0.000000
1001.729614
0.000000
0.000000
0.000000
2369.048584
1276.807739
0.000000
0.000000
1106.292358
0.000000
0.000000
0.000000
1985.056641
413.562225
0.000000
0.000000
894.117310
0.000000
0.000000
0.000000
1254.709351
662.278503
0.000000
0.000000
855.904297
1661.359497
0.000000
0.000000
1480.798340
1977.196167
0.000000
0.000000
262.256317
0.000000
0.000000
0.000000
1532.471558
1000.027222
0.000000
0.000000
2597.887939
2598.976318
0.000000
0.000000
439.590240
0.000000
0.000000
0.000000
1789.780396
1473.574463
0.000000
0.000000
0.000000
0.000000
0.000000
0.000000
0.000000
0.000000
0.000000
0.000000
0.000000
0.000000
0.000000
0.000000
0.000000
0.000000
0.000000
0.000000
0.000000
0.000000
0.000000
0.000000
0.000000
0.000000
0.000000
0.000000
0.000000
0.000000
0.000000
0.000000
0.000000
0.000000
0.000000
0.000000
0.000000
0.000000
0.000000
0.000000
0.000000
0.000000
0.000000
0.000000
0.000000
0.000000
0.000000
0.000000
0.000000
0.000000
0.000000
0.000000
0.000000
0.000000
0.000000
0.000000
0.000000
0.000000
0.000000
0.000000
0.000000
0.000000
0.000000
0.000000
0.000000
0.000000
0.000000
0.000000
0.000000
0.000000
0.000000
0.000000
0.000000
0.000000
0.000000
0.000000
0.000000
0.000000
0.000000
0.000000
0.000000
0.000000
0.000000
0.000000
0.000000
0.000000
0.000000
0.000000
0.000000
0.000000
0.000000
0.000000
0.000000
0.000000
0.000000
0.000000
0.000000
0.000000
0.000000
0.000000
0.000000
0.000000
0.000000
0.000000
0.000000
0.000000
0.000000
0.000000
0.000000
0.000000
0.000000
0.000000
0.000000
0.000000
0.000000
0.000000
0.000000
0.000000
0.000000
0.000000
0.000000
0.000000
0.000000
0.000000
0.000000
0.000000
0.000000
0.000000
0.000000
0.000000
0.000000
0.000000
0.000000
0.000000
0.000000
0.000000
0.000000
0.000000
0.000000
0.000000
0.000000
0.000000
0.000000
0.000000
0.000000
0.000000
0.000000
0.000000
0.000000
0.000000
</DataArray>
</PointData>
<Cells>
<DataArray type='Int32' Name='connectivity' format='ascii'>
0
1
2
3
4
5
6
7
8
9
10
11
12
13
14
15
16
17
18
19
20
21
22
23
24
25
26
27
28
29
30
31
32
33
34
35
36
37
38
39
40
41
42
43
44
45
46
47
48
49
50
51
52
53
54
55
56
57
58
59
60
61
62
63
64
65
66
67
68
69
70
71
72
73
74
75
76
77
78
79
80
81
82
83
84
85
86
87
88
89
90
91
92
93
94
95
96
97
98
99
100
101
102
103
104
105
106
107
108
109
110
111
112
113
114
115
116
117
118
119
120
121
122
123
124
125
126
127
128
129
130
131
132
133
134
135
136
137
138
139
140
141
142
143
144
145
146
147
148
149
150
151
152
153
154
155
156
157
158
159
160
161
162
163
164
165
166
167
168
169
170
171
172
173
174
175
176
177
178
179
180
181
182
183
184
185
186
187
188
189
190
191
192
193
194
195
196
197
198
199
200
201
202
203
204
205
206
207
208
209
210
211
212
213
214
215
216
217
218
219
220
221
222
223
224
225
226
227
228
229
230
231
232
233
234
235
236
237
238
239
240
241
242
243
244
245
246
247
248
249
250
251
252
253
254
255
256
257
258
259
260
261
262
263
264
265
266
267
268
269
270
271
272
273
274
275
276
277
278
279
280
281
282
283